
Host: QUADRAXIS

Timers On : Thu Feb 24 10:17:22 2022
Timers Off: Thu Feb 24 10:17:23 2022

Wall Time:        1.68 seconds

                                                       Time (seconds)
Module                                       User      System        Wall        Calls
V: Grid                             :      0.033u      0.000s      0.016w      3 calls
DFH: sparsity prep                  :      0.017u      0.000s      0.005w      1 calls
Libint2ERI::Libint2ERI              :      0.033u      0.000s      0.020w      7 calls
DFH: initialize()                   :      0.017u      0.000s      0.009w      1 calls
DFH: AO Construction                :      0.000u      0.000s      0.001w      1 calls
DFH: AO-Met. Contraction            :      0.000u      0.000s      0.000w      1 calls
HF: Form core H                     :      0.000u      0.017s      0.017w      2 calls
HF: Form S/X                        :      0.000u      0.000s      0.000w      2 calls
HF: Guess                           :      0.000u      0.000s      0.000w      2 calls
HF: Form G                          :      0.117u      0.000s      0.066w      6 calls
RV: Form V                          :      0.117u      0.000s      0.065w      6 calls
Properties                          :      0.033u      0.000s      0.007w   1254 calls
Functional                          :      0.083u      0.000s      0.046w   1254 calls
V_xc                                :      0.000u      0.000s      0.010w   1254 calls
JK: D                               :      0.000u      0.000s      0.000w      6 calls
JK: USO2AO                          :      0.000u      0.000s      0.000w      6 calls
JK: JK                              :      0.000u      0.000s      0.000w      6 calls
DFH: compute_JK()                   :      0.000u      0.000s      0.000w      6 calls
DFH: Grabbing AOs                   :      0.000u      0.000s      0.000w      6 calls
DFH: compute_J                      :      0.000u      0.000s      0.000w      6 calls
JK: AO2USO                          :      0.000u      0.000s      0.000w      6 calls
HF: Form F                          :      0.000u      0.000s      0.000w      6 calls
HF: DIIS                            :      0.000u      0.000s      0.005w      6 calls
DIISManager::add_entry              :      0.000u      0.000s      0.002w      6 calls
DIISManager::extrapolate            :      0.000u      0.000s      0.000w      6 calls
bMatrix setup                       :      0.000u      0.000s      0.000w      6 calls
bMatrix pseudoinverse               :      0.000u      0.000s      0.000w      6 calls
New vector                          :      0.000u      0.000s      0.000w      6 calls
HF: Form C                          :      0.000u      0.000s      0.000w      6 calls
HF: Form D                          :      0.000u      0.000s      0.000w      6 calls
Total PK formation time             :      0.067u      0.000s      0.034w      2 calls

--------------------------------------------------------------------------------------
V: Grid                             :      0.033u      0.000s      0.016w      3 calls
DFH: sparsity prep                  :      0.017u      0.000s      0.005w      1 calls
| Libint2ERI::Libint2ERI            :      0.000u      0.000s      0.003w      1 calls
DFH: initialize()                   :      0.017u      0.000s      0.009w      1 calls
| Libint2ERI::Libint2ERI            :      0.000u      0.000s      0.002w      2 calls
| DFH: AO Construction              :      0.000u      0.000s      0.001w      1 calls
| DFH: AO-Met. Contraction          :      0.000u      0.000s      0.000w      1 calls
HF: Form core H                     :      0.000u      0.017s      0.017w      2 calls
HF: Form S/X                        :      0.000u      0.000s      0.000w      2 calls
HF: Guess                           :      0.000u      0.000s      0.000w      2 calls
HF: Form G                          :      0.117u      0.000s      0.066w      6 calls
| RV: Form V                        :      0.117u      0.000s      0.065w      6 calls
| | Properties                      :      0.033u      0.000s      0.007w   1254 calls
| | Functional                      :      0.083u      0.000s      0.046w   1254 calls
| | V_xc                            :      0.000u      0.000s      0.010w   1254 calls
| JK: D                             :      0.000u      0.000s      0.000w      6 calls
| JK: USO2AO                        :      0.000u      0.000s      0.000w      6 calls
| JK: JK                            :      0.000u      0.000s      0.000w      6 calls
| | DFH: compute_JK()               :      0.000u      0.000s      0.000w      6 calls
| | | DFH: Grabbing AOs             :      0.000u      0.000s      0.000w      6 calls
| | | DFH: compute_J                :      0.000u      0.000s      0.000w      6 calls
| JK: AO2USO                        :      0.000u      0.000s      0.000w      6 calls
HF: Form F                          :      0.000u      0.000s      0.000w      6 calls
HF: DIIS                            :      0.000u      0.000s      0.005w      6 calls
| DIISManager::add_entry            :      0.000u      0.000s      0.002w      6 calls
| DIISManager::extrapolate          :      0.000u      0.000s      0.000w      6 calls
| | bMatrix setup                   :      0.000u      0.000s      0.000w      6 calls
| | bMatrix pseudoinverse           :      0.000u      0.000s      0.000w      6 calls
| | New vector                      :      0.000u      0.000s      0.000w      6 calls
HF: Form C                          :      0.000u      0.000s      0.000w      6 calls
HF: Form D                          :      0.000u      0.000s      0.000w      6 calls
Total PK formation time             :      0.067u      0.000s      0.034w      2 calls
| Libint2ERI::Libint2ERI            :      0.033u      0.000s      0.015w      4 calls

**************************************************************************************

Host: QUADRAXIS

Timers On : Thu Feb 24 10:17:34 2022
Timers Off: Thu Feb 24 10:17:36 2022

Wall Time:        1.64 seconds

                                                       Time (seconds)
Module                                       User      System        Wall        Calls
V: Grid                             :      0.000u      0.000s      0.015w      3 calls
DFH: sparsity prep                  :      0.000u      0.000s      0.006w      1 calls
Libint2ERI::Libint2ERI              :      0.017u      0.000s      0.019w      7 calls
DFH: initialize()                   :      0.017u      0.000s      0.009w      1 calls
DFH: AO Construction                :      0.000u      0.000s      0.001w      1 calls
DFH: AO-Met. Contraction            :      0.000u      0.000s      0.000w      1 calls
HF: Form core H                     :      0.000u      0.000s      0.013w      2 calls
HF: Form S/X                        :      0.000u      0.000s      0.000w      2 calls
HF: Guess                           :      0.000u      0.000s      0.000w      2 calls
HF: Form G                          :      0.117u      0.000s      0.072w      6 calls
RV: Form V                          :      0.117u      0.000s      0.072w      6 calls
Properties                          :      0.000u      0.000s      0.008w   1254 calls
Functional                          :      0.067u      0.000s      0.050w   1254 calls
V_xc                                :      0.050u      0.000s      0.011w   1254 calls
JK: D                               :      0.000u      0.000s      0.000w      6 calls
JK: USO2AO                          :      0.000u      0.000s      0.000w      6 calls
JK: JK                              :      0.000u      0.000s      0.000w      6 calls
DFH: compute_JK()                   :      0.000u      0.000s      0.000w      6 calls
DFH: Grabbing AOs                   :      0.000u      0.000s      0.000w      6 calls
DFH: compute_J                      :      0.000u      0.000s      0.000w      6 calls
JK: AO2USO                          :      0.000u      0.000s      0.000w      6 calls
HF: Form F                          :      0.000u      0.000s      0.000w      6 calls
HF: DIIS                            :      0.017u      0.000s      0.005w      6 calls
DIISManager::add_entry              :      0.000u      0.000s      0.002w      6 calls
DIISManager::extrapolate            :      0.000u      0.000s      0.000w      6 calls
bMatrix setup                       :      0.000u      0.000s      0.000w      6 calls
bMatrix pseudoinverse               :      0.000u      0.000s      0.000w      6 calls
New vector                          :      0.000u      0.000s      0.000w      6 calls
HF: Form C                          :      0.000u      0.000s      0.000w      6 calls
HF: Form D                          :      0.000u      0.000s      0.000w      6 calls
Total PK formation time             :      0.067u      0.000s      0.030w      2 calls

--------------------------------------------------------------------------------------
V: Grid                             :      0.000u      0.000s      0.015w      3 calls
DFH: sparsity prep                  :      0.000u      0.000s      0.006w      1 calls
| Libint2ERI::Libint2ERI            :      0.000u      0.000s      0.003w      1 calls
DFH: initialize()                   :      0.017u      0.000s      0.009w      1 calls
| Libint2ERI::Libint2ERI            :      0.000u      0.000s      0.002w      2 calls
| DFH: AO Construction              :      0.000u      0.000s      0.001w      1 calls
| DFH: AO-Met. Contraction          :      0.000u      0.000s      0.000w      1 calls
HF: Form core H                     :      0.000u      0.000s      0.013w      2 calls
HF: Form S/X                        :      0.000u      0.000s      0.000w      2 calls
HF: Guess                           :      0.000u      0.000s      0.000w      2 calls
HF: Form G                          :      0.117u      0.000s      0.072w      6 calls
| RV: Form V                        :      0.117u      0.000s      0.072w      6 calls
| | Properties                      :      0.000u      0.000s      0.008w   1254 calls
| | Functional                      :      0.067u      0.000s      0.050w   1254 calls
| | V_xc                            :      0.050u      0.000s      0.011w   1254 calls
| JK: D                             :      0.000u      0.000s      0.000w      6 calls
| JK: USO2AO                        :      0.000u      0.000s      0.000w      6 calls
| JK: JK                            :      0.000u      0.000s      0.000w      6 calls
| | DFH: compute_JK()               :      0.000u      0.000s      0.000w      6 calls
| | | DFH: Grabbing AOs             :      0.000u      0.000s      0.000w      6 calls
| | | DFH: compute_J                :      0.000u      0.000s      0.000w      6 calls
| JK: AO2USO                        :      0.000u      0.000s      0.000w      6 calls
HF: Form F                          :      0.000u      0.000s      0.000w      6 calls
HF: DIIS                            :      0.017u      0.000s      0.005w      6 calls
| DIISManager::add_entry            :      0.000u      0.000s      0.002w      6 calls
| DIISManager::extrapolate          :      0.000u      0.000s      0.000w      6 calls
| | bMatrix setup                   :      0.000u      0.000s      0.000w      6 calls
| | bMatrix pseudoinverse           :      0.000u      0.000s      0.000w      6 calls
| | New vector                      :      0.000u      0.000s      0.000w      6 calls
HF: Form C                          :      0.000u      0.000s      0.000w      6 calls
HF: Form D                          :      0.000u      0.000s      0.000w      6 calls
Total PK formation time             :      0.067u      0.000s      0.030w      2 calls
| Libint2ERI::Libint2ERI            :      0.017u      0.000s      0.013w      4 calls

**************************************************************************************

Host: QUADRAXIS

Timers On : Thu Feb 24 10:21:05 2022
Timers Off: Thu Feb 24 10:21:07 2022

Wall Time:        1.86 seconds

                                                       Time (seconds)
Module                                       User      System        Wall        Calls
V: Grid                             :      0.067u      0.000s      0.034w      6 calls
DFH: sparsity prep                  :      0.017u      0.000s      0.011w      2 calls
Libint2ERI::Libint2ERI              :      0.067u      0.000s      0.033w     14 calls
DFH: initialize()                   :      0.033u      0.000s      0.020w      2 calls
DFH: AO Construction                :      0.000u      0.000s      0.001w      2 calls
DFH: AO-Met. Contraction            :      0.000u      0.000s      0.000w      2 calls
HF: Form core H                     :      0.033u      0.000s      0.022w      4 calls
HF: Form S/X                        :      0.000u      0.000s      0.001w      4 calls
HF: Guess                           :      0.000u      0.000s      0.000w      4 calls
HF: Form G                          :      0.217u      0.017s      0.131w     12 calls
RV: Form V                          :      0.217u      0.017s      0.131w     12 calls
Properties                          :      0.033u      0.000s      0.014w   2508 calls
Functional                          :      0.150u      0.017s      0.092w   2508 calls
V_xc                                :      0.033u      0.000s      0.019w   2508 calls
JK: D                               :      0.000u      0.000s      0.000w     12 calls
JK: USO2AO                          :      0.000u      0.000s      0.000w     12 calls
JK: JK                              :      0.000u      0.000s      0.000w     12 calls
DFH: compute_JK()                   :      0.000u      0.000s      0.000w     12 calls
DFH: Grabbing AOs                   :      0.000u      0.000s      0.000w     12 calls
DFH: compute_J                      :      0.000u      0.000s      0.000w     12 calls
JK: AO2USO                          :      0.000u      0.000s      0.000w     12 calls
HF: Form F                          :      0.000u      0.000s      0.000w     12 calls
HF: DIIS                            :      0.000u      0.000s      0.009w     12 calls
DIISManager::add_entry              :      0.000u      0.000s      0.004w     12 calls
DIISManager::extrapolate            :      0.000u      0.000s      0.001w     12 calls
bMatrix setup                       :      0.000u      0.000s      0.000w     12 calls
bMatrix pseudoinverse               :      0.000u      0.000s      0.000w     12 calls
New vector                          :      0.000u      0.000s      0.000w     12 calls
HF: Form C                          :      0.000u      0.000s      0.000w     12 calls
HF: Form D                          :      0.000u      0.000s      0.000w     12 calls
Total PK formation time             :      0.050u      0.017s      0.048w      4 calls

--------------------------------------------------------------------------------------
V: Grid                             :      0.067u      0.000s      0.034w      6 calls
DFH: sparsity prep                  :      0.017u      0.000s      0.011w      2 calls
| Libint2ERI::Libint2ERI            :      0.017u      0.000s      0.007w      2 calls
DFH: initialize()                   :      0.033u      0.000s      0.020w      2 calls
| Libint2ERI::Libint2ERI            :      0.000u      0.000s      0.005w      4 calls
| DFH: AO Construction              :      0.000u      0.000s      0.001w      2 calls
| DFH: AO-Met. Contraction          :      0.000u      0.000s      0.000w      2 calls
HF: Form core H                     :      0.033u      0.000s      0.022w      4 calls
HF: Form S/X                        :      0.000u      0.000s      0.001w      4 calls
HF: Guess                           :      0.000u      0.000s      0.000w      4 calls
HF: Form G                          :      0.217u      0.017s      0.131w     12 calls
| RV: Form V                        :      0.217u      0.017s      0.131w     12 calls
| | Properties                      :      0.033u      0.000s      0.014w   2508 calls
| | Functional                      :      0.150u      0.017s      0.092w   2508 calls
| | V_xc                            :      0.033u      0.000s      0.019w   2508 calls
| JK: D                             :      0.000u      0.000s      0.000w     12 calls
| JK: USO2AO                        :      0.000u      0.000s      0.000w     12 calls
| JK: JK                            :      0.000u      0.000s      0.000w     12 calls
| | DFH: compute_JK()               :      0.000u      0.000s      0.000w     12 calls
| | | DFH: Grabbing AOs             :      0.000u      0.000s      0.000w     12 calls
| | | DFH: compute_J                :      0.000u      0.000s      0.000w     12 calls
| JK: AO2USO                        :      0.000u      0.000s      0.000w     12 calls
HF: Form F                          :      0.000u      0.000s      0.000w     12 calls
HF: DIIS                            :      0.000u      0.000s      0.009w     12 calls
| DIISManager::add_entry            :      0.000u      0.000s      0.004w     12 calls
| DIISManager::extrapolate          :      0.000u      0.000s      0.001w     12 calls
| | bMatrix setup                   :      0.000u      0.000s      0.000w     12 calls
| | bMatrix pseudoinverse           :      0.000u      0.000s      0.000w     12 calls
| | New vector                      :      0.000u      0.000s      0.000w     12 calls
HF: Form C                          :      0.000u      0.000s      0.000w     12 calls
HF: Form D                          :      0.000u      0.000s      0.000w     12 calls
Total PK formation time             :      0.050u      0.017s      0.048w      4 calls
| Libint2ERI::Libint2ERI            :      0.050u      0.000s      0.021w      8 calls

**************************************************************************************

Host: QUADRAXIS

Timers On : Thu Feb 24 10:21:21 2022
Timers Off: Thu Feb 24 10:21:23 2022

Wall Time:        1.93 seconds

                                                       Time (seconds)
Module                                       User      System        Wall        Calls
V: Grid                             :      0.033u      0.017s      0.032w      6 calls
DFH: sparsity prep                  :      0.000u      0.000s      0.011w      2 calls
Libint2ERI::Libint2ERI              :      0.033u      0.000s      0.033w     14 calls
DFH: initialize()                   :      0.033u      0.000s      0.017w      2 calls
DFH: AO Construction                :      0.000u      0.000s      0.001w      2 calls
DFH: AO-Met. Contraction            :      0.000u      0.000s      0.000w      2 calls
HF: Form core H                     :      0.017u      0.000s      0.023w      4 calls
HF: Form S/X                        :      0.000u      0.000s      0.001w      4 calls
HF: Guess                           :      0.000u      0.000s      0.000w      4 calls
HF: Form G                          :      0.200u      0.033s      0.122w     12 calls
RV: Form V                          :      0.200u      0.033s      0.121w     12 calls
Properties                          :      0.000u      0.000s      0.013w   2508 calls
Functional                          :      0.183u      0.033s      0.086w   2508 calls
V_xc                                :      0.017u      0.000s      0.018w   2508 calls
JK: D                               :      0.000u      0.000s      0.000w     12 calls
JK: USO2AO                          :      0.000u      0.000s      0.000w     12 calls
JK: JK                              :      0.000u      0.000s      0.000w     12 calls
DFH: compute_JK()                   :      0.000u      0.000s      0.000w     12 calls
DFH: Grabbing AOs                   :      0.000u      0.000s      0.000w     12 calls
DFH: compute_J                      :      0.000u      0.000s      0.000w     12 calls
JK: AO2USO                          :      0.000u      0.000s      0.000w     12 calls
HF: Form F                          :      0.000u      0.000s      0.000w     12 calls
HF: DIIS                            :      0.000u      0.000s      0.009w     12 calls
DIISManager::add_entry              :      0.000u      0.000s      0.004w     12 calls
DIISManager::extrapolate            :      0.000u      0.000s      0.001w     12 calls
bMatrix setup                       :      0.000u      0.000s      0.000w     12 calls
bMatrix pseudoinverse               :      0.000u      0.000s      0.000w     12 calls
New vector                          :      0.000u      0.000s      0.000w     12 calls
HF: Form C                          :      0.000u      0.000s      0.000w     12 calls
HF: Form D                          :      0.000u      0.000s      0.000w     12 calls
Total PK formation time             :      0.067u      0.017s      0.052w      4 calls

--------------------------------------------------------------------------------------
V: Grid                             :      0.033u      0.017s      0.032w      6 calls
DFH: sparsity prep                  :      0.000u      0.000s      0.011w      2 calls
| Libint2ERI::Libint2ERI            :      0.000u      0.000s      0.006w      2 calls
DFH: initialize()                   :      0.033u      0.000s      0.017w      2 calls
| Libint2ERI::Libint2ERI            :      0.000u      0.000s      0.004w      4 calls
| DFH: AO Construction              :      0.000u      0.000s      0.001w      2 calls
| DFH: AO-Met. Contraction          :      0.000u      0.000s      0.000w      2 calls
HF: Form core H                     :      0.017u      0.000s      0.023w      4 calls
HF: Form S/X                        :      0.000u      0.000s      0.001w      4 calls
HF: Guess                           :      0.000u      0.000s      0.000w      4 calls
HF: Form G                          :      0.200u      0.033s      0.122w     12 calls
| RV: Form V                        :      0.200u      0.033s      0.121w     12 calls
| | Properties                      :      0.000u      0.000s      0.013w   2508 calls
| | Functional                      :      0.183u      0.033s      0.086w   2508 calls
| | V_xc                            :      0.017u      0.000s      0.018w   2508 calls
| JK: D                             :      0.000u      0.000s      0.000w     12 calls
| JK: USO2AO                        :      0.000u      0.000s      0.000w     12 calls
| JK: JK                            :      0.000u      0.000s      0.000w     12 calls
| | DFH: compute_JK()               :      0.000u      0.000s      0.000w     12 calls
| | | DFH: Grabbing AOs             :      0.000u      0.000s      0.000w     12 calls
| | | DFH: compute_J                :      0.000u      0.000s      0.000w     12 calls
| JK: AO2USO                        :      0.000u      0.000s      0.000w     12 calls
HF: Form F                          :      0.000u      0.000s      0.000w     12 calls
HF: DIIS                            :      0.000u      0.000s      0.009w     12 calls
| DIISManager::add_entry            :      0.000u      0.000s      0.004w     12 calls
| DIISManager::extrapolate          :      0.000u      0.000s      0.001w     12 calls
| | bMatrix setup                   :      0.000u      0.000s      0.000w     12 calls
| | bMatrix pseudoinverse           :      0.000u      0.000s      0.000w     12 calls
| | New vector                      :      0.000u      0.000s      0.000w     12 calls
HF: Form C                          :      0.000u      0.000s      0.000w     12 calls
HF: Form D                          :      0.000u      0.000s      0.000w     12 calls
Total PK formation time             :      0.067u      0.017s      0.052w      4 calls
| Libint2ERI::Libint2ERI            :      0.033u      0.000s      0.023w      8 calls

**************************************************************************************

Host: QUADRAXIS

Timers On : Thu Feb 24 10:21:38 2022
Timers Off: Thu Feb 24 10:21:40 2022

Wall Time:        2.41 seconds

                                                       Time (seconds)
Module                                       User      System        Wall        Calls
V: Grid                             :      0.050u      0.000s      0.038w      6 calls
DFH: sparsity prep                  :      0.000u      0.000s      0.010w      2 calls
Libint2ERI::Libint2ERI              :      0.050u      0.000s      0.037w     14 calls
DFH: initialize()                   :      0.033u      0.000s      0.018w      2 calls
DFH: AO Construction                :      0.000u      0.000s      0.002w      2 calls
DFH: AO-Met. Contraction            :      0.000u      0.000s      0.000w      2 calls
HF: Form core H                     :      0.017u      0.000s      0.023w      4 calls
HF: Form S/X                        :      0.000u      0.000s      0.001w      4 calls
HF: Guess                           :      0.000u      0.000s      0.000w      4 calls
HF: Form G                          :      0.217u      0.017s      0.133w     12 calls
RV: Form V                          :      0.200u      0.017s      0.132w     12 calls
Properties                          :      0.000u      0.000s      0.014w   2508 calls
Functional                          :      0.150u      0.000s      0.092w   2508 calls
V_xc                                :      0.050u      0.017s      0.020w   2508 calls
JK: D                               :      0.000u      0.000s      0.000w     12 calls
JK: USO2AO                          :      0.000u      0.000s      0.000w     12 calls
JK: JK                              :      0.017u      0.000s      0.000w     12 calls
DFH: compute_JK()                   :      0.017u      0.000s      0.000w     12 calls
DFH: Grabbing AOs                   :      0.000u      0.000s      0.000w     12 calls
DFH: compute_J                      :      0.017u      0.000s      0.000w     12 calls
JK: AO2USO                          :      0.000u      0.000s      0.000w     12 calls
HF: Form F                          :      0.017u      0.000s      0.000w     12 calls
HF: DIIS                            :      0.000u      0.000s      0.010w     12 calls
DIISManager::add_entry              :      0.000u      0.000s      0.005w     12 calls
DIISManager::extrapolate            :      0.000u      0.000s      0.001w     12 calls
bMatrix setup                       :      0.000u      0.000s      0.000w     12 calls
bMatrix pseudoinverse               :      0.000u      0.000s      0.000w     12 calls
New vector                          :      0.000u      0.000s      0.000w     12 calls
HF: Form C                          :      0.000u      0.000s      0.000w     12 calls
HF: Form D                          :      0.000u      0.000s      0.000w     12 calls
Total PK formation time             :      0.100u      0.000s      0.064w      4 calls

--------------------------------------------------------------------------------------
V: Grid                             :      0.050u      0.000s      0.038w      6 calls
DFH: sparsity prep                  :      0.000u      0.000s      0.010w      2 calls
| Libint2ERI::Libint2ERI            :      0.000u      0.000s      0.005w      2 calls
DFH: initialize()                   :      0.033u      0.000s      0.018w      2 calls
| Libint2ERI::Libint2ERI            :      0.000u      0.000s      0.004w      4 calls
| DFH: AO Construction              :      0.000u      0.000s      0.002w      2 calls
| DFH: AO-Met. Contraction          :      0.000u      0.000s      0.000w      2 calls
HF: Form core H                     :      0.017u      0.000s      0.023w      4 calls
HF: Form S/X                        :      0.000u      0.000s      0.001w      4 calls
HF: Guess                           :      0.000u      0.000s      0.000w      4 calls
HF: Form G                          :      0.217u      0.017s      0.133w     12 calls
| RV: Form V                        :      0.200u      0.017s      0.132w     12 calls
| | Properties                      :      0.000u      0.000s      0.014w   2508 calls
| | Functional                      :      0.150u      0.000s      0.092w   2508 calls
| | V_xc                            :      0.050u      0.017s      0.020w   2508 calls
| JK: D                             :      0.000u      0.000s      0.000w     12 calls
| JK: USO2AO                        :      0.000u      0.000s      0.000w     12 calls
| JK: JK                            :      0.017u      0.000s      0.000w     12 calls
| | DFH: compute_JK()               :      0.017u      0.000s      0.000w     12 calls
| | | DFH: Grabbing AOs             :      0.000u      0.000s      0.000w     12 calls
| | | DFH: compute_J                :      0.017u      0.000s      0.000w     12 calls
| JK: AO2USO                        :      0.000u      0.000s      0.000w     12 calls
HF: Form F                          :      0.017u      0.000s      0.000w     12 calls
HF: DIIS                            :      0.000u      0.000s      0.010w     12 calls
| DIISManager::add_entry            :      0.000u      0.000s      0.005w     12 calls
| DIISManager::extrapolate          :      0.000u      0.000s      0.001w     12 calls
| | bMatrix setup                   :      0.000u      0.000s      0.000w     12 calls
| | bMatrix pseudoinverse           :      0.000u      0.000s      0.000w     12 calls
| | New vector                      :      0.000u      0.000s      0.000w     12 calls
HF: Form C                          :      0.000u      0.000s      0.000w     12 calls
HF: Form D                          :      0.000u      0.000s      0.000w     12 calls
Total PK formation time             :      0.100u      0.000s      0.064w      4 calls
| Libint2ERI::Libint2ERI            :      0.050u      0.000s      0.027w      8 calls

**************************************************************************************

Host: QUADRAXIS

Timers On : Thu Feb 24 10:22:48 2022
Timers Off: Thu Feb 24 10:22:50 2022

Wall Time:        1.85 seconds

                                                       Time (seconds)
Module                                       User      System        Wall        Calls
V: Grid                             :      0.067u      0.000s      0.035w      6 calls
DFH: sparsity prep                  :      0.017u      0.000s      0.010w      2 calls
Libint2ERI::Libint2ERI              :      0.033u      0.000s      0.029w     14 calls
DFH: initialize()                   :      0.033u      0.000s      0.018w      2 calls
DFH: AO Construction                :      0.000u      0.000s      0.001w      2 calls
DFH: AO-Met. Contraction            :      0.000u      0.000s      0.000w      2 calls
HF: Form core H                     :      0.017u      0.000s      0.026w      4 calls
HF: Form S/X                        :      0.000u      0.000s      0.001w      4 calls
HF: Guess                           :      0.000u      0.000s      0.000w      4 calls
HF: Form G                          :      0.200u      0.000s      0.118w     12 calls
RV: Form V                          :      0.200u      0.000s      0.117w     12 calls
Properties                          :      0.033u      0.000s      0.013w   2508 calls
Functional                          :      0.150u      0.000s      0.083w   2508 calls
V_xc                                :      0.017u      0.000s      0.017w   2508 calls
JK: D                               :      0.000u      0.000s      0.000w     12 calls
JK: USO2AO                          :      0.000u      0.000s      0.000w     12 calls
JK: JK                              :      0.000u      0.000s      0.000w     12 calls
DFH: compute_JK()                   :      0.000u      0.000s      0.000w     12 calls
DFH: Grabbing AOs                   :      0.000u      0.000s      0.000w     12 calls
DFH: compute_J                      :      0.000u      0.000s      0.000w     12 calls
JK: AO2USO                          :      0.000u      0.000s      0.000w     12 calls
HF: Form F                          :      0.000u      0.000s      0.000w     12 calls
HF: DIIS                            :      0.017u      0.000s      0.009w     12 calls
DIISManager::add_entry              :      0.000u      0.000s      0.004w     12 calls
DIISManager::extrapolate            :      0.000u      0.000s      0.001w     12 calls
bMatrix setup                       :      0.000u      0.000s      0.000w     12 calls
bMatrix pseudoinverse               :      0.000u      0.000s      0.000w     12 calls
New vector                          :      0.000u      0.000s      0.000w     12 calls
HF: Form C                          :      0.000u      0.000s      0.000w     12 calls
HF: Form D                          :      0.000u      0.000s      0.000w     12 calls
Total PK formation time             :      0.067u      0.000s      0.046w      4 calls

--------------------------------------------------------------------------------------
V: Grid                             :      0.067u      0.000s      0.035w      6 calls
DFH: sparsity prep                  :      0.017u      0.000s      0.010w      2 calls
| Libint2ERI::Libint2ERI            :      0.000u      0.000s      0.006w      2 calls
DFH: initialize()                   :      0.033u      0.000s      0.018w      2 calls
| Libint2ERI::Libint2ERI            :      0.000u      0.000s      0.004w      4 calls
| DFH: AO Construction              :      0.000u      0.000s      0.001w      2 calls
| DFH: AO-Met. Contraction          :      0.000u      0.000s      0.000w      2 calls
HF: Form core H                     :      0.017u      0.000s      0.026w      4 calls
HF: Form S/X                        :      0.000u      0.000s      0.001w      4 calls
HF: Guess                           :      0.000u      0.000s      0.000w      4 calls
HF: Form G                          :      0.200u      0.000s      0.118w     12 calls
| RV: Form V                        :      0.200u      0.000s      0.117w     12 calls
| | Properties                      :      0.033u      0.000s      0.013w   2508 calls
| | Functional                      :      0.150u      0.000s      0.083w   2508 calls
| | V_xc                            :      0.017u      0.000s      0.017w   2508 calls
| JK: D                             :      0.000u      0.000s      0.000w     12 calls
| JK: USO2AO                        :      0.000u      0.000s      0.000w     12 calls
| JK: JK                            :      0.000u      0.000s      0.000w     12 calls
| | DFH: compute_JK()               :      0.000u      0.000s      0.000w     12 calls
| | | DFH: Grabbing AOs             :      0.000u      0.000s      0.000w     12 calls
| | | DFH: compute_J                :      0.000u      0.000s      0.000w     12 calls
| JK: AO2USO                        :      0.000u      0.000s      0.000w     12 calls
HF: Form F                          :      0.000u      0.000s      0.000w     12 calls
HF: DIIS                            :      0.017u      0.000s      0.009w     12 calls
| DIISManager::add_entry            :      0.000u      0.000s      0.004w     12 calls
| DIISManager::extrapolate          :      0.000u      0.000s      0.001w     12 calls
| | bMatrix setup                   :      0.000u      0.000s      0.000w     12 calls
| | bMatrix pseudoinverse           :      0.000u      0.000s      0.000w     12 calls
| | New vector                      :      0.000u      0.000s      0.000w     12 calls
HF: Form C                          :      0.000u      0.000s      0.000w     12 calls
HF: Form D                          :      0.000u      0.000s      0.000w     12 calls
Total PK formation time             :      0.067u      0.000s      0.046w      4 calls
| Libint2ERI::Libint2ERI            :      0.033u      0.000s      0.019w      8 calls

**************************************************************************************

Host: QUADRAXIS

Timers On : Thu Feb 24 10:23:10 2022
Timers Off: Thu Feb 24 10:23:12 2022

Wall Time:        1.82 seconds

                                                       Time (seconds)
Module                                       User      System        Wall        Calls
V: Grid                             :      0.067u      0.000s      0.035w      6 calls
DFH: sparsity prep                  :      0.000u      0.000s      0.009w      2 calls
Libint2ERI::Libint2ERI              :      0.017u      0.017s      0.029w     14 calls
DFH: initialize()                   :      0.000u      0.033s      0.019w      2 calls
DFH: AO Construction                :      0.000u      0.000s      0.002w      2 calls
DFH: AO-Met. Contraction            :      0.000u      0.000s      0.000w      2 calls
HF: Form core H                     :      0.017u      0.000s      0.022w      4 calls
HF: Form S/X                        :      0.000u      0.000s      0.000w      4 calls
HF: Guess                           :      0.000u      0.000s      0.000w      4 calls
HF: Form G                          :      0.200u      0.000s      0.127w     12 calls
RV: Form V                          :      0.200u      0.000s      0.126w     12 calls
Properties                          :      0.033u      0.000s      0.014w   2508 calls
Functional                          :      0.150u      0.000s      0.088w   2508 calls
V_xc                                :      0.017u      0.000s      0.018w   2508 calls
JK: D                               :      0.000u      0.000s      0.000w     12 calls
JK: USO2AO                          :      0.000u      0.000s      0.000w     12 calls
JK: JK                              :      0.000u      0.000s      0.000w     12 calls
DFH: compute_JK()                   :      0.000u      0.000s      0.000w     12 calls
DFH: Grabbing AOs                   :      0.000u      0.000s      0.000w     12 calls
DFH: compute_J                      :      0.000u      0.000s      0.000w     12 calls
JK: AO2USO                          :      0.000u      0.000s      0.000w     12 calls
HF: Form F                          :      0.000u      0.000s      0.000w     12 calls
HF: DIIS                            :      0.017u      0.000s      0.010w     12 calls
DIISManager::add_entry              :      0.017u      0.000s      0.004w     12 calls
DIISManager::extrapolate            :      0.000u      0.000s      0.001w     12 calls
bMatrix setup                       :      0.000u      0.000s      0.000w     12 calls
bMatrix pseudoinverse               :      0.000u      0.000s      0.000w     12 calls
New vector                          :      0.000u      0.000s      0.000w     12 calls
HF: Form C                          :      0.000u      0.000s      0.000w     12 calls
HF: Form D                          :      0.000u      0.000s      0.000w     12 calls
Total PK formation time             :      0.050u      0.017s      0.047w      4 calls

--------------------------------------------------------------------------------------
V: Grid                             :      0.067u      0.000s      0.035w      6 calls
DFH: sparsity prep                  :      0.000u      0.000s      0.009w      2 calls
| Libint2ERI::Libint2ERI            :      0.000u      0.000s      0.005w      2 calls
DFH: initialize()                   :      0.000u      0.033s      0.019w      2 calls
| Libint2ERI::Libint2ERI            :      0.000u      0.000s      0.005w      4 calls
| DFH: AO Construction              :      0.000u      0.000s      0.002w      2 calls
| DFH: AO-Met. Contraction          :      0.000u      0.000s      0.000w      2 calls
HF: Form core H                     :      0.017u      0.000s      0.022w      4 calls
HF: Form S/X                        :      0.000u      0.000s      0.000w      4 calls
HF: Guess                           :      0.000u      0.000s      0.000w      4 calls
HF: Form G                          :      0.200u      0.000s      0.127w     12 calls
| RV: Form V                        :      0.200u      0.000s      0.126w     12 calls
| | Properties                      :      0.033u      0.000s      0.014w   2508 calls
| | Functional                      :      0.150u      0.000s      0.088w   2508 calls
| | V_xc                            :      0.017u      0.000s      0.018w   2508 calls
| JK: D                             :      0.000u      0.000s      0.000w     12 calls
| JK: USO2AO                        :      0.000u      0.000s      0.000w     12 calls
| JK: JK                            :      0.000u      0.000s      0.000w     12 calls
| | DFH: compute_JK()               :      0.000u      0.000s      0.000w     12 calls
| | | DFH: Grabbing AOs             :      0.000u      0.000s      0.000w     12 calls
| | | DFH: compute_J                :      0.000u      0.000s      0.000w     12 calls
| JK: AO2USO                        :      0.000u      0.000s      0.000w     12 calls
HF: Form F                          :      0.000u      0.000s      0.000w     12 calls
HF: DIIS                            :      0.017u      0.000s      0.010w     12 calls
| DIISManager::add_entry            :      0.017u      0.000s      0.004w     12 calls
| DIISManager::extrapolate          :      0.000u      0.000s      0.001w     12 calls
| | bMatrix setup                   :      0.000u      0.000s      0.000w     12 calls
| | bMatrix pseudoinverse           :      0.000u      0.000s      0.000w     12 calls
| | New vector                      :      0.000u      0.000s      0.000w     12 calls
HF: Form C                          :      0.000u      0.000s      0.000w     12 calls
HF: Form D                          :      0.000u      0.000s      0.000w     12 calls
Total PK formation time             :      0.050u      0.017s      0.047w      4 calls
| Libint2ERI::Libint2ERI            :      0.017u      0.017s      0.019w      8 calls

**************************************************************************************

Host: QUADRAXIS

Timers On : Thu Feb 24 10:24:03 2022
Timers Off: Thu Feb 24 10:24:05 2022

Wall Time:        1.86 seconds

                                                       Time (seconds)
Module                                       User      System        Wall        Calls
V: Grid                             :      0.033u      0.000s      0.033w      6 calls
DFH: sparsity prep                  :      0.017u      0.000s      0.009w      2 calls
Libint2ERI::Libint2ERI              :      0.033u      0.000s      0.029w     14 calls
DFH: initialize()                   :      0.033u      0.000s      0.017w      2 calls
DFH: AO Construction                :      0.000u      0.000s      0.002w      2 calls
DFH: AO-Met. Contraction            :      0.000u      0.000s      0.000w      2 calls
HF: Form core H                     :      0.000u      0.000s      0.024w      4 calls
HF: Form S/X                        :      0.000u      0.000s      0.001w      4 calls
HF: Guess                           :      0.000u      0.000s      0.000w      4 calls
HF: Form G                          :      0.217u      0.017s      0.122w     12 calls
RV: Form V                          :      0.217u      0.017s      0.121w     12 calls
Properties                          :      0.017u      0.017s      0.013w   2508 calls
Functional                          :      0.167u      0.000s      0.085w   2508 calls
V_xc                                :      0.033u      0.000s      0.018w   2508 calls
JK: D                               :      0.000u      0.000s      0.000w     12 calls
JK: USO2AO                          :      0.000u      0.000s      0.000w     12 calls
JK: JK                              :      0.000u      0.000s      0.000w     12 calls
DFH: compute_JK()                   :      0.000u      0.000s      0.000w     12 calls
DFH: Grabbing AOs                   :      0.000u      0.000s      0.000w     12 calls
DFH: compute_J                      :      0.000u      0.000s      0.000w     12 calls
JK: AO2USO                          :      0.000u      0.000s      0.000w     12 calls
HF: Form F                          :      0.000u      0.000s      0.000w     12 calls
HF: DIIS                            :      0.000u      0.000s      0.009w     12 calls
DIISManager::add_entry              :      0.000u      0.000s      0.004w     12 calls
DIISManager::extrapolate            :      0.000u      0.000s      0.001w     12 calls
bMatrix setup                       :      0.000u      0.000s      0.000w     12 calls
bMatrix pseudoinverse               :      0.000u      0.000s      0.000w     12 calls
New vector                          :      0.000u      0.000s      0.000w     12 calls
HF: Form C                          :      0.000u      0.000s      0.000w     12 calls
HF: Form D                          :      0.000u      0.000s      0.000w     12 calls
Total PK formation time             :      0.100u      0.000s      0.049w      4 calls

--------------------------------------------------------------------------------------
V: Grid                             :      0.033u      0.000s      0.033w      6 calls
DFH: sparsity prep                  :      0.017u      0.000s      0.009w      2 calls
| Libint2ERI::Libint2ERI            :      0.000u      0.000s      0.005w      2 calls
DFH: initialize()                   :      0.033u      0.000s      0.017w      2 calls
| Libint2ERI::Libint2ERI            :      0.000u      0.000s      0.004w      4 calls
| DFH: AO Construction              :      0.000u      0.000s      0.002w      2 calls
| DFH: AO-Met. Contraction          :      0.000u      0.000s      0.000w      2 calls
HF: Form core H                     :      0.000u      0.000s      0.024w      4 calls
HF: Form S/X                        :      0.000u      0.000s      0.001w      4 calls
HF: Guess                           :      0.000u      0.000s      0.000w      4 calls
HF: Form G                          :      0.217u      0.017s      0.122w     12 calls
| RV: Form V                        :      0.217u      0.017s      0.121w     12 calls
| | Properties                      :      0.017u      0.017s      0.013w   2508 calls
| | Functional                      :      0.167u      0.000s      0.085w   2508 calls
| | V_xc                            :      0.033u      0.000s      0.018w   2508 calls
| JK: D                             :      0.000u      0.000s      0.000w     12 calls
| JK: USO2AO                        :      0.000u      0.000s      0.000w     12 calls
| JK: JK                            :      0.000u      0.000s      0.000w     12 calls
| | DFH: compute_JK()               :      0.000u      0.000s      0.000w     12 calls
| | | DFH: Grabbing AOs             :      0.000u      0.000s      0.000w     12 calls
| | | DFH: compute_J                :      0.000u      0.000s      0.000w     12 calls
| JK: AO2USO                        :      0.000u      0.000s      0.000w     12 calls
HF: Form F                          :      0.000u      0.000s      0.000w     12 calls
HF: DIIS                            :      0.000u      0.000s      0.009w     12 calls
| DIISManager::add_entry            :      0.000u      0.000s      0.004w     12 calls
| DIISManager::extrapolate          :      0.000u      0.000s      0.001w     12 calls
| | bMatrix setup                   :      0.000u      0.000s      0.000w     12 calls
| | bMatrix pseudoinverse           :      0.000u      0.000s      0.000w     12 calls
| | New vector                      :      0.000u      0.000s      0.000w     12 calls
HF: Form C                          :      0.000u      0.000s      0.000w     12 calls
HF: Form D                          :      0.000u      0.000s      0.000w     12 calls
Total PK formation time             :      0.100u      0.000s      0.049w      4 calls
| Libint2ERI::Libint2ERI            :      0.033u      0.000s      0.020w      8 calls

**************************************************************************************

Host: QUADRAXIS

Timers On : Thu Feb 24 10:25:10 2022
Timers Off: Thu Feb 24 10:25:12 2022

Wall Time:        1.85 seconds

                                                       Time (seconds)
Module                                       User      System        Wall        Calls
V: Grid                             :      0.067u      0.033s      0.031w      6 calls
DFH: sparsity prep                  :      0.017u      0.000s      0.012w      2 calls
Libint2ERI::Libint2ERI              :      0.050u      0.000s      0.029w     14 calls
DFH: initialize()                   :      0.017u      0.017s      0.017w      2 calls
DFH: AO Construction                :      0.000u      0.000s      0.001w      2 calls
DFH: AO-Met. Contraction            :      0.000u      0.000s      0.000w      2 calls
HF: Form core H                     :      0.000u      0.000s      0.025w      4 calls
HF: Form S/X                        :      0.000u      0.000s      0.001w      4 calls
HF: Guess                           :      0.000u      0.000s      0.000w      4 calls
HF: Form G                          :      0.200u      0.000s      0.127w     12 calls
RV: Form V                          :      0.200u      0.000s      0.126w     12 calls
Properties                          :      0.067u      0.000s      0.014w   2508 calls
Functional                          :      0.117u      0.000s      0.089w   2508 calls
V_xc                                :      0.017u      0.000s      0.019w   2508 calls
JK: D                               :      0.000u      0.000s      0.000w     12 calls
JK: USO2AO                          :      0.000u      0.000s      0.000w     12 calls
JK: JK                              :      0.000u      0.000s      0.000w     12 calls
DFH: compute_JK()                   :      0.000u      0.000s      0.000w     12 calls
DFH: Grabbing AOs                   :      0.000u      0.000s      0.000w     12 calls
DFH: compute_J                      :      0.000u      0.000s      0.000w     12 calls
JK: AO2USO                          :      0.000u      0.000s      0.000w     12 calls
HF: Form F                          :      0.000u      0.000s      0.000w     12 calls
HF: DIIS                            :      0.000u      0.000s      0.010w     12 calls
DIISManager::add_entry              :      0.000u      0.000s      0.004w     12 calls
DIISManager::extrapolate            :      0.000u      0.000s      0.001w     12 calls
bMatrix setup                       :      0.000u      0.000s      0.000w     12 calls
bMatrix pseudoinverse               :      0.000u      0.000s      0.000w     12 calls
New vector                          :      0.000u      0.000s      0.000w     12 calls
HF: Form C                          :      0.017u      0.000s      0.000w     12 calls
HF: Form D                          :      0.000u      0.000s      0.000w     12 calls
Total PK formation time             :      0.067u      0.000s      0.045w      4 calls

--------------------------------------------------------------------------------------
V: Grid                             :      0.067u      0.033s      0.031w      6 calls
DFH: sparsity prep                  :      0.017u      0.000s      0.012w      2 calls
| Libint2ERI::Libint2ERI            :      0.000u      0.000s      0.007w      2 calls
DFH: initialize()                   :      0.017u      0.017s      0.017w      2 calls
| Libint2ERI::Libint2ERI            :      0.000u      0.000s      0.004w      4 calls
| DFH: AO Construction              :      0.000u      0.000s      0.001w      2 calls
| DFH: AO-Met. Contraction          :      0.000u      0.000s      0.000w      2 calls
HF: Form core H                     :      0.000u      0.000s      0.025w      4 calls
HF: Form S/X                        :      0.000u      0.000s      0.001w      4 calls
HF: Guess                           :      0.000u      0.000s      0.000w      4 calls
HF: Form G                          :      0.200u      0.000s      0.127w     12 calls
| RV: Form V                        :      0.200u      0.000s      0.126w     12 calls
| | Properties                      :      0.067u      0.000s      0.014w   2508 calls
| | Functional                      :      0.117u      0.000s      0.089w   2508 calls
| | V_xc                            :      0.017u      0.000s      0.019w   2508 calls
| JK: D                             :      0.000u      0.000s      0.000w     12 calls
| JK: USO2AO                        :      0.000u      0.000s      0.000w     12 calls
| JK: JK                            :      0.000u      0.000s      0.000w     12 calls
| | DFH: compute_JK()               :      0.000u      0.000s      0.000w     12 calls
| | | DFH: Grabbing AOs             :      0.000u      0.000s      0.000w     12 calls
| | | DFH: compute_J                :      0.000u      0.000s      0.000w     12 calls
| JK: AO2USO                        :      0.000u      0.000s      0.000w     12 calls
HF: Form F                          :      0.000u      0.000s      0.000w     12 calls
HF: DIIS                            :      0.000u      0.000s      0.010w     12 calls
| DIISManager::add_entry            :      0.000u      0.000s      0.004w     12 calls
| DIISManager::extrapolate          :      0.000u      0.000s      0.001w     12 calls
| | bMatrix setup                   :      0.000u      0.000s      0.000w     12 calls
| | bMatrix pseudoinverse           :      0.000u      0.000s      0.000w     12 calls
| | New vector                      :      0.000u      0.000s      0.000w     12 calls
HF: Form C                          :      0.017u      0.000s      0.000w     12 calls
HF: Form D                          :      0.000u      0.000s      0.000w     12 calls
Total PK formation time             :      0.067u      0.000s      0.045w      4 calls
| Libint2ERI::Libint2ERI            :      0.050u      0.000s      0.018w      8 calls

**************************************************************************************

Host: QUADRAXIS

Timers On : Thu Feb 24 11:09:49 2022
Timers Off: Thu Feb 24 11:09:50 2022

Wall Time:        1.86 seconds

                                                       Time (seconds)
Module                                       User      System        Wall        Calls
V: Grid                             :      0.033u      0.017s      0.030w      6 calls
DFH: sparsity prep                  :      0.017u      0.000s      0.009w      2 calls
Libint2ERI::Libint2ERI              :      0.083u      0.000s      0.029w     14 calls
DFH: initialize()                   :      0.033u      0.000s      0.024w      2 calls
DFH: AO Construction                :      0.000u      0.000s      0.002w      2 calls
DFH: AO-Met. Contraction            :      0.000u      0.000s      0.000w      2 calls
HF: Form core H                     :      0.000u      0.000s      0.023w      4 calls
HF: Form S/X                        :      0.000u      0.000s      0.001w      4 calls
HF: Guess                           :      0.000u      0.000s      0.000w      4 calls
HF: Form G                          :      0.200u      0.017s      0.127w     12 calls
RV: Form V                          :      0.200u      0.017s      0.126w     12 calls
Properties                          :      0.050u      0.017s      0.014w   2508 calls
Functional                          :      0.133u      0.000s      0.089w   2508 calls
V_xc                                :      0.000u      0.000s      0.019w   2508 calls
JK: D                               :      0.000u      0.000s      0.000w     12 calls
JK: USO2AO                          :      0.000u      0.000s      0.000w     12 calls
JK: JK                              :      0.000u      0.000s      0.000w     12 calls
DFH: compute_JK()                   :      0.000u      0.000s      0.000w     12 calls
DFH: Grabbing AOs                   :      0.000u      0.000s      0.000w     12 calls
DFH: compute_J                      :      0.000u      0.000s      0.000w     12 calls
JK: AO2USO                          :      0.000u      0.000s      0.000w     12 calls
HF: Form F                          :      0.000u      0.000s      0.000w     12 calls
HF: DIIS                            :      0.017u      0.000s      0.010w     12 calls
DIISManager::add_entry              :      0.000u      0.000s      0.005w     12 calls
DIISManager::extrapolate            :      0.000u      0.000s      0.001w     12 calls
bMatrix setup                       :      0.000u      0.000s      0.000w     12 calls
bMatrix pseudoinverse               :      0.000u      0.000s      0.000w     12 calls
New vector                          :      0.000u      0.000s      0.000w     12 calls
HF: Form C                          :      0.000u      0.000s      0.001w     12 calls
HF: Form D                          :      0.000u      0.000s      0.000w     12 calls
Total PK formation time             :      0.050u      0.017s      0.045w      4 calls

--------------------------------------------------------------------------------------
V: Grid                             :      0.033u      0.017s      0.030w      6 calls
DFH: sparsity prep                  :      0.017u      0.000s      0.009w      2 calls
| Libint2ERI::Libint2ERI            :      0.017u      0.000s      0.005w      2 calls
DFH: initialize()                   :      0.033u      0.000s      0.024w      2 calls
| Libint2ERI::Libint2ERI            :      0.033u      0.000s      0.006w      4 calls
| DFH: AO Construction              :      0.000u      0.000s      0.002w      2 calls
| DFH: AO-Met. Contraction          :      0.000u      0.000s      0.000w      2 calls
HF: Form core H                     :      0.000u      0.000s      0.023w      4 calls
HF: Form S/X                        :      0.000u      0.000s      0.001w      4 calls
HF: Guess                           :      0.000u      0.000s      0.000w      4 calls
HF: Form G                          :      0.200u      0.017s      0.127w     12 calls
| RV: Form V                        :      0.200u      0.017s      0.126w     12 calls
| | Properties                      :      0.050u      0.017s      0.014w   2508 calls
| | Functional                      :      0.133u      0.000s      0.089w   2508 calls
| | V_xc                            :      0.000u      0.000s      0.019w   2508 calls
| JK: D                             :      0.000u      0.000s      0.000w     12 calls
| JK: USO2AO                        :      0.000u      0.000s      0.000w     12 calls
| JK: JK                            :      0.000u      0.000s      0.000w     12 calls
| | DFH: compute_JK()               :      0.000u      0.000s      0.000w     12 calls
| | | DFH: Grabbing AOs             :      0.000u      0.000s      0.000w     12 calls
| | | DFH: compute_J                :      0.000u      0.000s      0.000w     12 calls
| JK: AO2USO                        :      0.000u      0.000s      0.000w     12 calls
HF: Form F                          :      0.000u      0.000s      0.000w     12 calls
HF: DIIS                            :      0.017u      0.000s      0.010w     12 calls
| DIISManager::add_entry            :      0.000u      0.000s      0.005w     12 calls
| DIISManager::extrapolate          :      0.000u      0.000s      0.001w     12 calls
| | bMatrix setup                   :      0.000u      0.000s      0.000w     12 calls
| | bMatrix pseudoinverse           :      0.000u      0.000s      0.000w     12 calls
| | New vector                      :      0.000u      0.000s      0.000w     12 calls
HF: Form C                          :      0.000u      0.000s      0.001w     12 calls
HF: Form D                          :      0.000u      0.000s      0.000w     12 calls
Total PK formation time             :      0.050u      0.017s      0.045w      4 calls
| Libint2ERI::Libint2ERI            :      0.033u      0.000s      0.019w      8 calls

**************************************************************************************

Host: QUADRAXIS

Timers On : Thu Feb 24 11:10:17 2022
Timers Off: Thu Feb 24 11:10:18 2022

Wall Time:        1.91 seconds

                                                       Time (seconds)
Module                                       User      System        Wall        Calls
V: Grid                             :      0.050u      0.000s      0.036w      6 calls
DFH: sparsity prep                  :      0.000u      0.000s      0.010w      2 calls
Libint2ERI::Libint2ERI              :      0.050u      0.000s      0.030w     14 calls
DFH: initialize()                   :      0.033u      0.000s      0.017w      2 calls
DFH: AO Construction                :      0.000u      0.000s      0.001w      2 calls
DFH: AO-Met. Contraction            :      0.000u      0.000s      0.000w      2 calls
HF: Form core H                     :      0.000u      0.000s      0.025w      4 calls
HF: Form S/X                        :      0.000u      0.000s      0.001w      4 calls
HF: Guess                           :      0.000u      0.000s      0.000w      4 calls
HF: Form G                          :      0.233u      0.017s      0.137w     12 calls
RV: Form V                          :      0.233u      0.017s      0.136w     12 calls
Properties                          :      0.017u      0.000s      0.015w   2508 calls
Functional                          :      0.200u      0.017s      0.095w   2508 calls
V_xc                                :      0.017u      0.000s      0.020w   2508 calls
JK: D                               :      0.000u      0.000s      0.000w     12 calls
JK: USO2AO                          :      0.000u      0.000s      0.000w     12 calls
JK: JK                              :      0.000u      0.000s      0.000w     12 calls
DFH: compute_JK()                   :      0.000u      0.000s      0.000w     12 calls
DFH: Grabbing AOs                   :      0.000u      0.000s      0.000w     12 calls
DFH: compute_J                      :      0.000u      0.000s      0.000w     12 calls
JK: AO2USO                          :      0.000u      0.000s      0.000w     12 calls
HF: Form F                          :      0.017u      0.000s      0.000w     12 calls
HF: DIIS                            :      0.000u      0.000s      0.011w     12 calls
DIISManager::add_entry              :      0.000u      0.000s      0.005w     12 calls
DIISManager::extrapolate            :      0.000u      0.000s      0.001w     12 calls
bMatrix setup                       :      0.000u      0.000s      0.000w     12 calls
bMatrix pseudoinverse               :      0.000u      0.000s      0.001w     12 calls
New vector                          :      0.000u      0.000s      0.000w     12 calls
HF: Form C                          :      0.017u      0.000s      0.001w     12 calls
HF: Form D                          :      0.000u      0.000s      0.000w     12 calls
Total PK formation time             :      0.067u      0.000s      0.048w      4 calls

--------------------------------------------------------------------------------------
V: Grid                             :      0.050u      0.000s      0.036w      6 calls
DFH: sparsity prep                  :      0.000u      0.000s      0.010w      2 calls
| Libint2ERI::Libint2ERI            :      0.000u      0.000s      0.006w      2 calls
DFH: initialize()                   :      0.033u      0.000s      0.017w      2 calls
| Libint2ERI::Libint2ERI            :      0.000u      0.000s      0.004w      4 calls
| DFH: AO Construction              :      0.000u      0.000s      0.001w      2 calls
| DFH: AO-Met. Contraction          :      0.000u      0.000s      0.000w      2 calls
HF: Form core H                     :      0.000u      0.000s      0.025w      4 calls
HF: Form S/X                        :      0.000u      0.000s      0.001w      4 calls
HF: Guess                           :      0.000u      0.000s      0.000w      4 calls
HF: Form G                          :      0.233u      0.017s      0.137w     12 calls
| RV: Form V                        :      0.233u      0.017s      0.136w     12 calls
| | Properties                      :      0.017u      0.000s      0.015w   2508 calls
| | Functional                      :      0.200u      0.017s      0.095w   2508 calls
| | V_xc                            :      0.017u      0.000s      0.020w   2508 calls
| JK: D                             :      0.000u      0.000s      0.000w     12 calls
| JK: USO2AO                        :      0.000u      0.000s      0.000w     12 calls
| JK: JK                            :      0.000u      0.000s      0.000w     12 calls
| | DFH: compute_JK()               :      0.000u      0.000s      0.000w     12 calls
| | | DFH: Grabbing AOs             :      0.000u      0.000s      0.000w     12 calls
| | | DFH: compute_J                :      0.000u      0.000s      0.000w     12 calls
| JK: AO2USO                        :      0.000u      0.000s      0.000w     12 calls
HF: Form F                          :      0.017u      0.000s      0.000w     12 calls
HF: DIIS                            :      0.000u      0.000s      0.011w     12 calls
| DIISManager::add_entry            :      0.000u      0.000s      0.005w     12 calls
| DIISManager::extrapolate          :      0.000u      0.000s      0.001w     12 calls
| | bMatrix setup                   :      0.000u      0.000s      0.000w     12 calls
| | bMatrix pseudoinverse           :      0.000u      0.000s      0.001w     12 calls
| | New vector                      :      0.000u      0.000s      0.000w     12 calls
HF: Form C                          :      0.017u      0.000s      0.001w     12 calls
HF: Form D                          :      0.000u      0.000s      0.000w     12 calls
Total PK formation time             :      0.067u      0.000s      0.048w      4 calls
| Libint2ERI::Libint2ERI            :      0.050u      0.000s      0.020w      8 calls

**************************************************************************************

Host: QUADRAXIS

Timers On : Thu Feb 24 11:10:38 2022
Timers Off: Thu Feb 24 11:10:40 2022

Wall Time:        1.88 seconds

                                                       Time (seconds)
Module                                       User      System        Wall        Calls
V: Grid                             :      0.100u      0.000s      0.037w      6 calls
DFH: sparsity prep                  :      0.033u      0.000s      0.009w      2 calls
Libint2ERI::Libint2ERI              :      0.033u      0.017s      0.031w     14 calls
DFH: initialize()                   :      0.033u      0.000s      0.019w      2 calls
DFH: AO Construction                :      0.000u      0.000s      0.002w      2 calls
DFH: AO-Met. Contraction            :      0.000u      0.000s      0.000w      2 calls
HF: Form core H                     :      0.000u      0.000s      0.024w      4 calls
HF: Form S/X                        :      0.000u      0.000s      0.001w      4 calls
HF: Guess                           :      0.000u      0.000s      0.000w      4 calls
HF: Form G                          :      0.233u      0.000s      0.135w     12 calls
RV: Form V                          :      0.233u      0.000s      0.134w     12 calls
Properties                          :      0.000u      0.000s      0.015w   2508 calls
Functional                          :      0.200u      0.000s      0.094w   2508 calls
V_xc                                :      0.033u      0.000s      0.020w   2508 calls
JK: D                               :      0.000u      0.000s      0.000w     12 calls
JK: USO2AO                          :      0.000u      0.000s      0.000w     12 calls
JK: JK                              :      0.000u      0.000s      0.000w     12 calls
DFH: compute_JK()                   :      0.000u      0.000s      0.000w     12 calls
DFH: Grabbing AOs                   :      0.000u      0.000s      0.000w     12 calls
DFH: compute_J                      :      0.000u      0.000s      0.000w     12 calls
JK: AO2USO                          :      0.000u      0.000s      0.000w     12 calls
HF: Form F                          :      0.000u      0.000s      0.000w     12 calls
HF: DIIS                            :      0.000u      0.000s      0.012w     12 calls
DIISManager::add_entry              :      0.000u      0.000s      0.006w     12 calls
DIISManager::extrapolate            :      0.000u      0.000s      0.001w     12 calls
bMatrix setup                       :      0.000u      0.000s      0.000w     12 calls
bMatrix pseudoinverse               :      0.000u      0.000s      0.000w     12 calls
New vector                          :      0.000u      0.000s      0.000w     12 calls
HF: Form C                          :      0.000u      0.000s      0.001w     12 calls
HF: Form D                          :      0.000u      0.000s      0.000w     12 calls
Total PK formation time             :      0.050u      0.017s      0.051w      4 calls

--------------------------------------------------------------------------------------
V: Grid                             :      0.100u      0.000s      0.037w      6 calls
DFH: sparsity prep                  :      0.033u      0.000s      0.009w      2 calls
| Libint2ERI::Libint2ERI            :      0.000u      0.000s      0.005w      2 calls
DFH: initialize()                   :      0.033u      0.000s      0.019w      2 calls
| Libint2ERI::Libint2ERI            :      0.017u      0.000s      0.005w      4 calls
| DFH: AO Construction              :      0.000u      0.000s      0.002w      2 calls
| DFH: AO-Met. Contraction          :      0.000u      0.000s      0.000w      2 calls
HF: Form core H                     :      0.000u      0.000s      0.024w      4 calls
HF: Form S/X                        :      0.000u      0.000s      0.001w      4 calls
HF: Guess                           :      0.000u      0.000s      0.000w      4 calls
HF: Form G                          :      0.233u      0.000s      0.135w     12 calls
| RV: Form V                        :      0.233u      0.000s      0.134w     12 calls
| | Properties                      :      0.000u      0.000s      0.015w   2508 calls
| | Functional                      :      0.200u      0.000s      0.094w   2508 calls
| | V_xc                            :      0.033u      0.000s      0.020w   2508 calls
| JK: D                             :      0.000u      0.000s      0.000w     12 calls
| JK: USO2AO                        :      0.000u      0.000s      0.000w     12 calls
| JK: JK                            :      0.000u      0.000s      0.000w     12 calls
| | DFH: compute_JK()               :      0.000u      0.000s      0.000w     12 calls
| | | DFH: Grabbing AOs             :      0.000u      0.000s      0.000w     12 calls
| | | DFH: compute_J                :      0.000u      0.000s      0.000w     12 calls
| JK: AO2USO                        :      0.000u      0.000s      0.000w     12 calls
HF: Form F                          :      0.000u      0.000s      0.000w     12 calls
HF: DIIS                            :      0.000u      0.000s      0.012w     12 calls
| DIISManager::add_entry            :      0.000u      0.000s      0.006w     12 calls
| DIISManager::extrapolate          :      0.000u      0.000s      0.001w     12 calls
| | bMatrix setup                   :      0.000u      0.000s      0.000w     12 calls
| | bMatrix pseudoinverse           :      0.000u      0.000s      0.000w     12 calls
| | New vector                      :      0.000u      0.000s      0.000w     12 calls
HF: Form C                          :      0.000u      0.000s      0.001w     12 calls
HF: Form D                          :      0.000u      0.000s      0.000w     12 calls
Total PK formation time             :      0.050u      0.017s      0.051w      4 calls
| Libint2ERI::Libint2ERI            :      0.017u      0.017s      0.021w      8 calls

**************************************************************************************

Host: QUADRAXIS

Timers On : Thu Feb 24 11:11:21 2022
Timers Off: Thu Feb 24 11:11:23 2022

Wall Time:        2.06 seconds

                                                       Time (seconds)
Module                                       User      System        Wall        Calls
V: Grid                             :      0.050u      0.000s      0.034w      6 calls
DFH: sparsity prep                  :      0.000u      0.000s      0.010w      2 calls
Libint2ERI::Libint2ERI              :      0.067u      0.000s      0.034w     14 calls
DFH: initialize()                   :      0.033u      0.000s      0.020w      2 calls
DFH: AO Construction                :      0.000u      0.000s      0.002w      2 calls
DFH: AO-Met. Contraction            :      0.000u      0.000s      0.000w      2 calls
HF: Form core H                     :      0.000u      0.000s      0.023w      4 calls
HF: Form S/X                        :      0.000u      0.000s      0.001w      4 calls
HF: Guess                           :      0.000u      0.000s      0.000w      4 calls
HF: Form G                          :      0.233u      0.000s      0.141w     12 calls
RV: Form V                          :      0.233u      0.000s      0.140w     12 calls
Properties                          :      0.033u      0.000s      0.016w   2508 calls
Functional                          :      0.100u      0.000s      0.098w   2508 calls
V_xc                                :      0.100u      0.000s      0.021w   2508 calls
JK: D                               :      0.000u      0.000s      0.000w     12 calls
JK: USO2AO                          :      0.000u      0.000s      0.000w     12 calls
JK: JK                              :      0.000u      0.000s      0.000w     12 calls
DFH: compute_JK()                   :      0.000u      0.000s      0.000w     12 calls
DFH: Grabbing AOs                   :      0.000u      0.000s      0.000w     12 calls
DFH: compute_J                      :      0.000u      0.000s      0.000w     12 calls
JK: AO2USO                          :      0.000u      0.000s      0.000w     12 calls
HF: Form F                          :      0.000u      0.000s      0.000w     12 calls
HF: DIIS                            :      0.000u      0.000s      0.010w     12 calls
DIISManager::add_entry              :      0.000u      0.000s      0.004w     12 calls
DIISManager::extrapolate            :      0.000u      0.000s      0.001w     12 calls
bMatrix setup                       :      0.000u      0.000s      0.000w     12 calls
bMatrix pseudoinverse               :      0.000u      0.000s      0.000w     12 calls
New vector                          :      0.000u      0.000s      0.000w     12 calls
HF: Form C                          :      0.000u      0.000s      0.000w     12 calls
HF: Form D                          :      0.000u      0.000s      0.000w     12 calls
Total PK formation time             :      0.100u      0.000s      0.054w      4 calls

--------------------------------------------------------------------------------------
V: Grid                             :      0.050u      0.000s      0.034w      6 calls
DFH: sparsity prep                  :      0.000u      0.000s      0.010w      2 calls
| Libint2ERI::Libint2ERI            :      0.000u      0.000s      0.006w      2 calls
DFH: initialize()                   :      0.033u      0.000s      0.020w      2 calls
| Libint2ERI::Libint2ERI            :      0.000u      0.000s      0.005w      4 calls
| DFH: AO Construction              :      0.000u      0.000s      0.002w      2 calls
| DFH: AO-Met. Contraction          :      0.000u      0.000s      0.000w      2 calls
HF: Form core H                     :      0.000u      0.000s      0.023w      4 calls
HF: Form S/X                        :      0.000u      0.000s      0.001w      4 calls
HF: Guess                           :      0.000u      0.000s      0.000w      4 calls
HF: Form G                          :      0.233u      0.000s      0.141w     12 calls
| RV: Form V                        :      0.233u      0.000s      0.140w     12 calls
| | Properties                      :      0.033u      0.000s      0.016w   2508 calls
| | Functional                      :      0.100u      0.000s      0.098w   2508 calls
| | V_xc                            :      0.100u      0.000s      0.021w   2508 calls
| JK: D                             :      0.000u      0.000s      0.000w     12 calls
| JK: USO2AO                        :      0.000u      0.000s      0.000w     12 calls
| JK: JK                            :      0.000u      0.000s      0.000w     12 calls
| | DFH: compute_JK()               :      0.000u      0.000s      0.000w     12 calls
| | | DFH: Grabbing AOs             :      0.000u      0.000s      0.000w     12 calls
| | | DFH: compute_J                :      0.000u      0.000s      0.000w     12 calls
| JK: AO2USO                        :      0.000u      0.000s      0.000w     12 calls
HF: Form F                          :      0.000u      0.000s      0.000w     12 calls
HF: DIIS                            :      0.000u      0.000s      0.010w     12 calls
| DIISManager::add_entry            :      0.000u      0.000s      0.004w     12 calls
| DIISManager::extrapolate          :      0.000u      0.000s      0.001w     12 calls
| | bMatrix setup                   :      0.000u      0.000s      0.000w     12 calls
| | bMatrix pseudoinverse           :      0.000u      0.000s      0.000w     12 calls
| | New vector                      :      0.000u      0.000s      0.000w     12 calls
HF: Form C                          :      0.000u      0.000s      0.000w     12 calls
HF: Form D                          :      0.000u      0.000s      0.000w     12 calls
Total PK formation time             :      0.100u      0.000s      0.054w      4 calls
| Libint2ERI::Libint2ERI            :      0.067u      0.000s      0.024w      8 calls

**************************************************************************************

Host: QUADRAXIS

Timers On : Thu Feb 24 11:11:57 2022
Timers Off: Thu Feb 24 11:11:58 2022

Wall Time:        1.88 seconds

                                                       Time (seconds)
Module                                       User      System        Wall        Calls
V: Grid                             :      0.000u      0.000s      0.005w      6 calls
DFH: sparsity prep                  :      0.017u      0.000s      0.009w      2 calls
Libint2ERI::Libint2ERI              :      0.000u      0.017s      0.026w     14 calls
DFH: initialize()                   :      0.033u      0.000s      0.017w      2 calls
DFH: AO Construction                :      0.000u      0.000s      0.001w      2 calls
DFH: AO-Met. Contraction            :      0.000u      0.000s      0.000w      2 calls
HF: Form core H                     :      0.033u      0.000s      0.021w      4 calls
HF: Form S/X                        :      0.000u      0.000s      0.001w      4 calls
HF: Guess                           :      0.000u      0.000s      0.000w      4 calls
HF: Form G                          :      0.000u      0.000s      0.014w     12 calls
RV: Form V                          :      0.000u      0.000s      0.013w     12 calls
Properties                          :      0.000u      0.000s      0.002w    300 calls
Functional                          :      0.000u      0.000s      0.009w    300 calls
V_xc                                :      0.000u      0.000s      0.002w    300 calls
JK: D                               :      0.000u      0.000s      0.000w     12 calls
[...]
DFH: sparsity prep                  :      0.033u      0.000s      0.015w      3 calls
Libint2ERI::Libint2ERI              :      0.050u      0.000s      0.035w     21 calls
DFH: initialize()                   :      0.033u      0.000s      0.024w      3 calls
DFH: AO Construction                :      0.000u      0.000s      0.002w      3 calls
DFH: AO-Met. Contraction            :      0.000u      0.000s      0.000w      3 calls
HF: Form core H                     :      0.017u      0.000s      0.034w      6 calls
HF: Form S/X                        :      0.000u      0.000s      0.001w      6 calls
HF: Guess                           :      0.000u      0.000s      0.000w      6 calls
HF: Form G                          :      0.033u      0.000s      0.021w     18 calls
RV: Form V                          :      0.033u      0.000s      0.020w     18 calls
Properties                          :      0.017u      0.000s      0.003w    450 calls
Functional                          :      0.017u      0.000s      0.013w    450 calls
V_xc                                :      0.000u      0.000s      0.003w    450 calls
JK: D                               :      0.000u      0.000s      0.000w     18 calls
JK: USO2AO                          :      0.000u      0.000s      0.000w     18 calls
JK: JK                              :      0.000u      0.000s      0.000w     18 calls
DFH: compute_JK()                   :      0.000u      0.000s      0.000w     18 calls
DFH: Grabbing AOs                   :      0.000u      0.000s      0.000w     18 calls
DFH: compute_J                      :      0.000u      0.000s      0.000w     18 calls
JK: AO2USO                          :      0.000u      0.000s      0.000w     18 calls
HF: Form F                          :      0.000u      0.000s      0.000w     18 calls
HF: DIIS                            :      0.000u      0.000s      0.015w     18 calls
DIISManager::add_entry              :      0.000u      0.000s      0.008w     18 calls
DIISManager::extrapolate            :      0.000u      0.000s      0.001w     18 calls
bMatrix setup                       :      0.000u      0.000s      0.000w     18 calls
bMatrix pseudoinverse               :      0.000u      0.000s      0.000w     18 calls
New vector                          :      0.000u      0.000s      0.000w     18 calls
HF: Form C                          :      0.000u      0.000s      0.001w     18 calls
HF: Form D                          :      0.000u      0.000s      0.000w     18 calls
Total PK formation time             :      0.100u      0.000s      0.064w      6 calls

--------------------------------------------------------------------------------------
V: Grid                             :      0.000u      0.000s      0.007w      9 calls
DFH: sparsity prep                  :      0.033u      0.000s      0.015w      3 calls
| Libint2ERI::Libint2ERI            :      0.000u      0.000s      0.008w      3 calls
DFH: initialize()                   :      0.033u      0.000s      0.024w      3 calls
| Libint2ERI::Libint2ERI            :      0.017u      0.000s      0.005w      6 calls
| DFH: AO Construction              :      0.000u      0.000s      0.002w      3 calls
| DFH: AO-Met. Contraction          :      0.000u      0.000s      0.000w      3 calls
HF: Form core H                     :      0.017u      0.000s      0.034w      6 calls
HF: Form S/X                        :      0.000u      0.000s      0.001w      6 calls
HF: Guess                           :      0.000u      0.000s      0.000w      6 calls
HF: Form G                          :      0.033u      0.000s      0.021w     18 calls
| RV: Form V                        :      0.033u      0.000s      0.020w     18 calls
| | Properties                      :      0.017u      0.000s      0.003w    450 calls
| | Functional                      :      0.017u      0.000s      0.013w    450 calls
| | V_xc                            :      0.000u      0.000s      0.003w    450 calls
| JK: D                             :      0.000u      0.000s      0.000w     18 calls
| JK: USO2AO                        :      0.000u      0.000s      0.000w     18 calls
| JK: JK                            :      0.000u      0.000s      0.000w     18 calls
| | DFH: compute_JK()               :      0.000u      0.000s      0.000w     18 calls
| | | DFH: Grabbing AOs             :      0.000u      0.000s      0.000w     18 calls
| | | DFH: compute_J                :      0.000u      0.000s      0.000w     18 calls
| JK: AO2USO                        :      0.000u      0.000s      0.000w     18 calls
HF: Form F                          :      0.000u      0.000s      0.000w     18 calls
HF: DIIS                            :      0.000u      0.000s      0.015w     18 calls
| DIISManager::add_entry            :      0.000u      0.000s      0.008w     18 calls
| DIISManager::extrapolate          :      0.000u      0.000s      0.001w     18 calls
| | bMatrix setup                   :      0.000u      0.000s      0.000w     18 calls
| | bMatrix pseudoinverse           :      0.000u      0.000s      0.000w     18 calls
| | New vector                      :      0.000u      0.000s      0.000w     18 calls
HF: Form C                          :      0.000u      0.000s      0.001w     18 calls
HF: Form D                          :      0.000u      0.000s      0.000w     18 calls
Total PK formation time             :      0.100u      0.000s      0.064w      6 calls
| Libint2ERI::Libint2ERI            :      0.033u      0.000s      0.022w     12 calls

**************************************************************************************

Host: QUADRAXIS

Timers On : Thu Feb 24 11:20:23 2022
Timers Off: Thu Feb 24 11:20:24 2022

Wall Time:        1.72 seconds

                                                       Time (seconds)
Module                                       User      System        Wall        Calls
V: Grid                             :      0.017u      0.000s      0.007w      9 calls
DFH: sparsity prep                  :      0.017u      0.000s      0.013w      3 calls
Libint2ERI::Libint2ERI              :      0.050u      0.000s      0.033w     21 calls
DFH: initialize()                   :      0.033u      0.000s      0.025w      3 calls
DFH: AO Construction                :      0.017u      0.000s      0.002w      3 calls
DFH: AO-Met. Contraction            :      0.017u      0.000s      0.000w      3 calls
HF: Form core H                     :      0.017u      0.000s      0.031w      6 calls
HF: Form S/X                        :      0.000u      0.000s      0.001w      6 calls
HF: Guess                           :      0.000u      0.000s      0.000w      6 calls
HF: Form G                          :      0.033u      0.000s      0.021w     18 calls
RV: Form V                          :      0.033u      0.000s      0.020w     18 calls
Properties                          :      0.000u      0.000s      0.002w    450 calls
Functional                          :      0.033u      0.000s      0.013w    450 calls
V_xc                                :      0.000u      0.000s      0.003w    450 calls
JK: D                               :      0.000u      0.000s      0.000w     18 calls
JK: USO2AO                          :      0.000u      0.000s      0.000w     18 calls
JK: JK                              :      0.000u      0.000s      0.000w     18 calls
DFH: compute_JK()                   :      0.000u      0.000s      0.000w     18 calls
DFH: Grabbing AOs                   :      0.000u      0.000s      0.000w     18 calls
DFH: compute_J                      :      0.000u      0.000s      0.000w     18 calls
JK: AO2USO                          :      0.000u      0.000s      0.000w     18 calls
HF: Form F                          :      0.000u      0.000s      0.000w     18 calls
HF: DIIS                            :      0.000u      0.000s      0.014w     18 calls
DIISManager::add_entry              :      0.000u      0.000s      0.007w     18 calls
DIISManager::extrapolate            :      0.000u      0.000s      0.001w     18 calls
bMatrix setup                       :      0.000u      0.000s      0.000w     18 calls
bMatrix pseudoinverse               :      0.000u      0.000s      0.000w     18 calls
New vector                          :      0.000u      0.000s      0.000w     18 calls
HF: Form C                          :      0.000u      0.000s      0.001w     18 calls
HF: Form D                          :      0.000u      0.000s      0.000w     18 calls
Total PK formation time             :      0.100u      0.000s      0.061w      6 calls

--------------------------------------------------------------------------------------
V: Grid                             :      0.017u      0.000s      0.007w      9 calls
DFH: sparsity prep                  :      0.017u      0.000s      0.013w      3 calls
| Libint2ERI::Libint2ERI            :      0.000u      0.000s      0.007w      3 calls
DFH: initialize()                   :      0.033u      0.000s      0.025w      3 calls
| Libint2ERI::Libint2ERI            :      0.000u      0.000s      0.005w      6 calls
| DFH: AO Construction              :      0.017u      0.000s      0.002w      3 calls
| DFH: AO-Met. Contraction          :      0.017u      0.000s      0.000w      3 calls
HF: Form core H                     :      0.017u      0.000s      0.031w      6 calls
HF: Form S/X                        :      0.000u      0.000s      0.001w      6 calls
HF: Guess                           :      0.000u      0.000s      0.000w      6 calls
HF: Form G                          :      0.033u      0.000s      0.021w     18 calls
| RV: Form V                        :      0.033u      0.000s      0.020w     18 calls
| | Properties                      :      0.000u      0.000s      0.002w    450 calls
| | Functional                      :      0.033u      0.000s      0.013w    450 calls
| | V_xc                            :      0.000u      0.000s      0.003w    450 calls
| JK: D                             :      0.000u      0.000s      0.000w     18 calls
| JK: USO2AO                        :      0.000u      0.000s      0.000w     18 calls
| JK: JK                            :      0.000u      0.000s      0.000w     18 calls
| | DFH: compute_JK()               :      0.000u      0.000s      0.000w     18 calls
| | | DFH: Grabbing AOs             :      0.000u      0.000s      0.000w     18 calls
| | | DFH: compute_J                :      0.000u      0.000s      0.000w     18 calls
| JK: AO2USO                        :      0.000u      0.000s      0.000w     18 calls
HF: Form F                          :      0.000u      0.000s      0.000w     18 calls
HF: DIIS                            :      0.000u      0.000s      0.014w     18 calls
| DIISManager::add_entry            :      0.000u      0.000s      0.007w     18 calls
| DIISManager::extrapolate          :      0.000u      0.000s      0.001w     18 calls
| | bMatrix setup                   :      0.000u      0.000s      0.000w     18 calls
| | bMatrix pseudoinverse           :      0.000u      0.000s      0.000w     18 calls
| | New vector                      :      0.000u      0.000s      0.000w     18 calls
HF: Form C                          :      0.000u      0.000s      0.001w     18 calls
HF: Form D                          :      0.000u      0.000s      0.000w     18 calls
Total PK formation time             :      0.100u      0.000s      0.061w      6 calls
| Libint2ERI::Libint2ERI            :      0.050u      0.000s      0.022w     12 calls

**************************************************************************************

Host: QUADRAXIS

Timers On : Thu Feb 24 12:02:10 2022
Timers Off: Thu Feb 24 12:02:13 2022

Wall Time:        2.83 seconds

                                                       Time (seconds)
Module                                       User      System        Wall        Calls

--------------------------------------------------------------------------------------

**************************************************************************************

Host: QUADRAXIS

Timers On : Thu Feb 24 12:02:36 2022
Timers Off: Thu Feb 24 12:02:39 2022

Wall Time:        2.91 seconds

                                                       Time (seconds)
Module                                       User      System        Wall        Calls

--------------------------------------------------------------------------------------

**************************************************************************************

Host: QUADRAXIS

Timers On : Thu Feb 24 12:03:21 2022
Timers Off: Thu Feb 24 12:03:23 2022

Wall Time:        2.92 seconds

                                                       Time (seconds)
Module                                       User      System        Wall        Calls

--------------------------------------------------------------------------------------

**************************************************************************************

Host: QUADRAXIS

Timers On : Thu Feb 24 12:04:55 2022
Timers Off: Thu Feb 24 12:04:58 2022

Wall Time:        2.83 seconds

                                                       Time (seconds)
Module                                       User      System        Wall        Calls

--------------------------------------------------------------------------------------

**************************************************************************************

Host: QUADRAXIS

Timers On : Thu Feb 24 12:05:47 2022
Timers Off: Thu Feb 24 12:05:50 2022

Wall Time:        2.68 seconds

                                                       Time (seconds)
Module                                       User      System        Wall        Calls

--------------------------------------------------------------------------------------

**************************************************************************************

Host: QUADRAXIS

Timers On : Tue Mar  1 14:57:26 2022
Timers Off: Tue Mar  1 14:57:30 2022

Wall Time:        3.47 seconds

                                                       Time (seconds)
Module                                       User      System        Wall        Calls
V: Grid                             :      0.000u      0.000s      0.007w      9 calls
DFH: sparsity prep                  :      0.000u      0.000s      0.016w      3 calls
Libint2ERI::Libint2ERI              :      0.033u      0.000s      0.035w     21 calls
DFH: initialize()                   :      0.017u      0.000s      0.026w      3 calls
DFH: AO Construction                :      0.000u      0.000s      0.002w      3 calls
DFH: AO-Met. Contraction            :      0.000u      0.000s      0.000w      3 calls
HF: Form core H                     :      0.017u      0.000s      0.032w      6 calls
HF: Form S/X                        :      0.000u      0.000s      0.001w      6 calls
HF: Guess                           :      0.000u      0.000s      0.000w      6 calls
HF: Form G                          :      0.017u      0.000s      0.023w     18 calls
RV: Form V                          :      0.017u      0.000s      0.022w     18 calls
Properties                          :      0.000u      0.000s      0.003w    450 calls
Functional                          :      0.017u      0.000s      0.014w    450 calls
V_xc                                :      0.000u      0.000s      0.004w    450 calls
JK: D                               :      0.000u      0.000s      0.000w     18 calls
JK: USO2AO                          :      0.000u      0.000s      0.000w     18 calls
JK: JK                              :      0.000u      0.000s      0.001w     18 calls
DFH: compute_JK()                   :      0.000u      0.000s      0.000w     18 calls
DFH: Grabbing AOs                   :      0.000u      0.000s      0.000w     18 calls
DFH: compute_J                      :      0.000u      0.000s      0.000w     18 calls
JK: AO2USO                          :      0.000u      0.000s      0.000w     18 calls
HF: Form F                          :      0.000u      0.000s      0.000w     18 calls
HF: DIIS                            :      0.033u      0.000s      0.014w     18 calls
DIISManager::add_entry              :      0.000u      0.000s      0.006w     18 calls
DIISManager::extrapolate            :      0.000u      0.000s      0.001w     18 calls
bMatrix setup                       :      0.000u      0.000s      0.000w     18 calls
bMatrix pseudoinverse               :      0.000u      0.000s      0.000w     18 calls
New vector                          :      0.000u      0.000s      0.000w     18 calls
HF: Form C                          :      0.000u      0.000s      0.001w     18 calls
HF: Form D                          :      0.000u      0.000s      0.000w     18 calls
Total PK formation time             :      0.117u      0.000s      0.062w      6 calls

--------------------------------------------------------------------------------------
V: Grid                             :      0.000u      0.000s      0.007w      9 calls
DFH: sparsity prep                  :      0.000u      0.000s      0.016w      3 calls
| Libint2ERI::Libint2ERI            :      0.000u      0.000s      0.008w      3 calls
DFH: initialize()                   :      0.017u      0.000s      0.026w      3 calls
| Libint2ERI::Libint2ERI            :      0.000u      0.000s      0.005w      6 calls
| DFH: AO Construction              :      0.000u      0.000s      0.002w      3 calls
| DFH: AO-Met. Contraction          :      0.000u      0.000s      0.000w      3 calls
HF: Form core H                     :      0.017u      0.000s      0.032w      6 calls
HF: Form S/X                        :      0.000u      0.000s      0.001w      6 calls
HF: Guess                           :      0.000u      0.000s      0.000w      6 calls
HF: Form G                          :      0.017u      0.000s      0.023w     18 calls
| RV: Form V                        :      0.017u      0.000s      0.022w     18 calls
| | Properties                      :      0.000u      0.000s      0.003w    450 calls
| | Functional                      :      0.017u      0.000s      0.014w    450 calls
| | V_xc                            :      0.000u      0.000s      0.004w    450 calls
| JK: D                             :      0.000u      0.000s      0.000w     18 calls
| JK: USO2AO                        :      0.000u      0.000s      0.000w     18 calls
| JK: JK                            :      0.000u      0.000s      0.001w     18 calls
| | DFH: compute_JK()               :      0.000u      0.000s      0.000w     18 calls
| | | DFH: Grabbing AOs             :      0.000u      0.000s      0.000w     18 calls
| | | DFH: compute_J                :      0.000u      0.000s      0.000w     18 calls
| JK: AO2USO                        :      0.000u      0.000s      0.000w     18 calls
HF: Form F                          :      0.000u      0.000s      0.000w     18 calls
HF: DIIS                            :      0.033u      0.000s      0.014w     18 calls
| DIISManager::add_entry            :      0.000u      0.000s      0.006w     18 calls
| DIISManager::extrapolate          :      0.000u      0.000s      0.001w     18 calls
| | bMatrix setup                   :      0.000u      0.000s      0.000w     18 calls
| | bMatrix pseudoinverse           :      0.000u      0.000s      0.000w     18 calls
| | New vector                      :      0.000u      0.000s      0.000w     18 calls
HF: Form C                          :      0.000u      0.000s      0.001w     18 calls
HF: Form D                          :      0.000u      0.000s      0.000w     18 calls
Total PK formation time             :      0.117u      0.000s      0.062w      6 calls
| Libint2ERI::Libint2ERI            :      0.033u      0.000s      0.021w     12 calls

**************************************************************************************
