
Host: QUADRAXIS

Timers On : Thu Jan 13 13:02:07 2022
Timers Off: Thu Jan 13 13:02:13 2022

Wall Time:        6.09 seconds

                                                       Time (seconds)
Module                                       User      System        Wall        Calls
V: Grid                             :      0.033u      0.000s      0.027w      3 calls
DFH: sparsity prep                  :      0.000u      0.017s      0.014w      1 calls
Libint2ERI::Libint2ERI              :      0.033u      0.017s      0.049w      7 calls
DFH: initialize()                   :      0.033u      0.033s      0.035w      1 calls
DFH: AO Construction                :      0.017u      0.000s      0.008w      1 calls
DFH: AO-Met. Contraction            :      0.000u      0.000s      0.003w      1 calls
HF: Form core H                     :      0.017u      0.000s      0.027w      2 calls
HF: Form S/X                        :      0.000u      0.000s      0.001w      2 calls
HF: Guess                           :      0.000u      0.000s      0.001w      2 calls
HF: Form G                          :      1.367u      0.017s      0.834w      8 calls
RV: Form V                          :      1.350u      0.017s      0.830w      8 calls
Properties                          :      0.367u      0.017s      0.195w   1776 calls
Functional                          :      0.583u      0.000s      0.388w   1776 calls
V_xc                                :      0.400u      0.000s      0.237w   1776 calls
JK: D                               :      0.017u      0.000s      0.002w    120 calls
JK: USO2AO                          :      0.000u      0.000s      0.001w    120 calls
JK: JK                              :      0.067u      0.000s      0.087w    120 calls
DFH: compute_JK()                   :      0.000u      0.000s      0.003w      8 calls
DFH: Grabbing AOs                   :      0.000u      0.000s      0.000w      8 calls
DFH: compute_J                      :      0.000u      0.000s      0.002w      8 calls
JK: AO2USO                          :      0.000u      0.000s      0.000w    120 calls
HF: Form F                          :      0.000u      0.000s      0.000w      8 calls
HF: DIIS                            :      0.017u      0.000s      0.013w      8 calls
DIISManager::add_entry              :      0.017u      0.000s      0.005w      8 calls
DIISManager::extrapolate            :      0.000u      0.000s      0.002w      8 calls
bMatrix setup                       :      0.000u      0.000s      0.000w      8 calls
bMatrix pseudoinverse               :      0.000u      0.000s      0.001w      8 calls
New vector                          :      0.000u      0.000s      0.001w      8 calls
HF: Form C                          :      0.000u      0.000s      0.003w      8 calls
HF: Form D                          :      0.000u      0.000s      0.000w      8 calls
Total PK formation time             :      0.283u      0.017s      0.180w      2 calls
PK computes JK                      :      0.067u      0.000s      0.084w    112 calls

--------------------------------------------------------------------------------------
V: Grid                             :      0.033u      0.000s      0.027w      3 calls
DFH: sparsity prep                  :      0.000u      0.017s      0.014w      1 calls
| Libint2ERI::Libint2ERI            :      0.000u      0.000s      0.008w      1 calls
DFH: initialize()                   :      0.033u      0.033s      0.035w      1 calls
| Libint2ERI::Libint2ERI            :      0.000u      0.017s      0.008w      2 calls
| DFH: AO Construction              :      0.017u      0.000s      0.008w      1 calls
| DFH: AO-Met. Contraction          :      0.000u      0.000s      0.003w      1 calls
HF: Form core H                     :      0.017u      0.000s      0.027w      2 calls
HF: Form S/X                        :      0.000u      0.000s      0.001w      2 calls
HF: Guess                           :      0.000u      0.000s      0.001w      2 calls
HF: Form G                          :      1.367u      0.017s      0.834w      8 calls
| RV: Form V                        :      1.350u      0.017s      0.830w      8 calls
| | Properties                      :      0.367u      0.017s      0.195w   1776 calls
| | Functional                      :      0.583u      0.000s      0.388w   1776 calls
| | V_xc                            :      0.400u      0.000s      0.237w   1776 calls
| JK: D                             :      0.017u      0.000s      0.000w      8 calls
| JK: USO2AO                        :      0.000u      0.000s      0.000w      8 calls
| JK: JK                            :      0.000u      0.000s      0.003w      8 calls
| | DFH: compute_JK()               :      0.000u      0.000s      0.003w      8 calls
| | | DFH: Grabbing AOs             :      0.000u      0.000s      0.000w      8 calls
| | | DFH: compute_J                :      0.000u      0.000s      0.002w      8 calls
| JK: AO2USO                        :      0.000u      0.000s      0.000w      8 calls
HF: Form F                          :      0.000u      0.000s      0.000w      8 calls
HF: DIIS                            :      0.017u      0.000s      0.013w      8 calls
| DIISManager::add_entry            :      0.017u      0.000s      0.005w      8 calls
| DIISManager::extrapolate          :      0.000u      0.000s      0.002w      8 calls
| | bMatrix setup                   :      0.000u      0.000s      0.000w      8 calls
| | bMatrix pseudoinverse           :      0.000u      0.000s      0.001w      8 calls
| | New vector                      :      0.000u      0.000s      0.001w      8 calls
HF: Form C                          :      0.000u      0.000s      0.003w      8 calls
HF: Form D                          :      0.000u      0.000s      0.000w      8 calls
Total PK formation time             :      0.283u      0.017s      0.180w      2 calls
| Libint2ERI::Libint2ERI            :      0.033u      0.000s      0.033w      4 calls
JK: D                               :      0.000u      0.000s      0.002w    112 calls
JK: USO2AO                          :      0.000u      0.000s      0.001w    112 calls
JK: JK                              :      0.067u      0.000s      0.084w    112 calls
| PK computes JK                    :      0.067u      0.000s      0.084w    112 calls
JK: AO2USO                          :      0.000u      0.000s      0.000w    112 calls

**************************************************************************************

Host: QUADRAXIS

Timers On : Thu Jan 13 13:03:01 2022
Timers Off: Thu Jan 13 13:03:08 2022

Wall Time:        7.12 seconds

                                                       Time (seconds)
Module                                       User      System        Wall        Calls
V: Grid                             :      0.050u      0.000s      0.033w      3 calls
DFH: sparsity prep                  :      0.033u      0.000s      0.018w      1 calls
Libint2ERI::Libint2ERI              :      0.067u      0.017s      0.057w      7 calls
DFH: initialize()                   :      0.067u      0.000s      0.035w      1 calls
DFH: AO Construction                :      0.017u      0.000s      0.008w      1 calls
DFH: AO-Met. Contraction            :      0.000u      0.000s      0.003w      1 calls
HF: Form core H                     :      0.017u      0.000s      0.032w      2 calls
HF: Form S/X                        :      0.000u      0.000s      0.001w      2 calls
HF: Guess                           :      0.017u      0.000s      0.002w      2 calls
HF: Form G                          :      1.550u      0.017s      0.968w      8 calls
RV: Form V                          :      1.550u      0.017s      0.965w      8 calls
Properties                          :      0.317u      0.000s      0.229w   1776 calls
Functional                          :      0.817u      0.017s      0.448w   1776 calls
V_xc                                :      0.383u      0.000s      0.277w   1776 calls
JK: D                               :      0.000u      0.000s      0.003w    120 calls
JK: USO2AO                          :      0.000u      0.000s      0.001w    120 calls
JK: JK                              :      0.250u      0.000s      0.102w    120 calls
DFH: compute_JK()                   :      0.000u      0.000s      0.002w      8 calls
DFH: Grabbing AOs                   :      0.000u      0.000s      0.000w      8 calls
DFH: compute_J                      :      0.000u      0.000s      0.002w      8 calls
JK: AO2USO                          :      0.000u      0.000s      0.000w    120 calls
HF: Form F                          :      0.000u      0.000s      0.000w      8 calls
HF: DIIS                            :      0.050u      0.000s      0.015w      8 calls
DIISManager::add_entry              :      0.017u      0.000s      0.007w      8 calls
DIISManager::extrapolate            :      0.000u      0.000s      0.002w      8 calls
bMatrix setup                       :      0.000u      0.000s      0.001w      8 calls
bMatrix pseudoinverse               :      0.000u      0.000s      0.001w      8 calls
New vector                          :      0.000u      0.000s      0.000w      8 calls
HF: Form C                          :      0.033u      0.000s      0.004w      8 calls
HF: Form D                          :      0.000u      0.000s      0.000w      8 calls
Total PK formation time             :      0.317u      0.050s      0.208w      2 calls
PK computes JK                      :      0.233u      0.000s      0.100w    112 calls

--------------------------------------------------------------------------------------
V: Grid                             :      0.050u      0.000s      0.033w      3 calls
DFH: sparsity prep                  :      0.033u      0.000s      0.018w      1 calls
| Libint2ERI::Libint2ERI            :      0.033u      0.000s      0.012w      1 calls
DFH: initialize()                   :      0.067u      0.000s      0.035w      1 calls
| Libint2ERI::Libint2ERI            :      0.000u      0.000s      0.007w      2 calls
| DFH: AO Construction              :      0.017u      0.000s      0.008w      1 calls
| DFH: AO-Met. Contraction          :      0.000u      0.000s      0.003w      1 calls
HF: Form core H                     :      0.017u      0.000s      0.032w      2 calls
HF: Form S/X                        :      0.000u      0.000s      0.001w      2 calls
HF: Guess                           :      0.017u      0.000s      0.002w      2 calls
HF: Form G                          :      1.550u      0.017s      0.968w      8 calls
| RV: Form V                        :      1.550u      0.017s      0.965w      8 calls
| | Properties                      :      0.317u      0.000s      0.229w   1776 calls
| | Functional                      :      0.817u      0.017s      0.448w   1776 calls
| | V_xc                            :      0.383u      0.000s      0.277w   1776 calls
| JK: D                             :      0.000u      0.000s      0.000w      8 calls
| JK: USO2AO                        :      0.000u      0.000s      0.000w      8 calls
| JK: JK                            :      0.000u      0.000s      0.002w      8 calls
| | DFH: compute_JK()               :      0.000u      0.000s      0.002w      8 calls
| | | DFH: Grabbing AOs             :      0.000u      0.000s      0.000w      8 calls
| | | DFH: compute_J                :      0.000u      0.000s      0.002w      8 calls
| JK: AO2USO                        :      0.000u      0.000s      0.000w      8 calls
HF: Form F                          :      0.000u      0.000s      0.000w      8 calls
HF: DIIS                            :      0.050u      0.000s      0.015w      8 calls
| DIISManager::add_entry            :      0.017u      0.000s      0.007w      8 calls
| DIISManager::extrapolate          :      0.000u      0.000s      0.002w      8 calls
| | bMatrix setup                   :      0.000u      0.000s      0.001w      8 calls
| | bMatrix pseudoinverse           :      0.000u      0.000s      0.001w      8 calls
| | New vector                      :      0.000u      0.000s      0.000w      8 calls
HF: Form C                          :      0.033u      0.000s      0.004w      8 calls
HF: Form D                          :      0.000u      0.000s      0.000w      8 calls
Total PK formation time             :      0.317u      0.050s      0.208w      2 calls
| Libint2ERI::Libint2ERI            :      0.033u      0.017s      0.037w      4 calls
JK: D                               :      0.000u      0.000s      0.002w    112 calls
JK: USO2AO                          :      0.000u      0.000s      0.001w    112 calls
JK: JK                              :      0.250u      0.000s      0.100w    112 calls
| PK computes JK                    :      0.233u      0.000s      0.100w    112 calls
JK: AO2USO                          :      0.000u      0.000s      0.000w    112 calls

**************************************************************************************

Host: QUADRAXIS

Timers On : Thu Jan 13 13:04:51 2022
Timers Off: Thu Jan 13 13:04:58 2022

Wall Time:        7.14 seconds

                                                       Time (seconds)
Module                                       User      System        Wall        Calls
V: Grid                             :      0.050u      0.000s      0.031w      3 calls
DFH: sparsity prep                  :      0.017u      0.000s      0.016w      1 calls
Libint2ERI::Libint2ERI              :      0.083u      0.017s      0.055w      7 calls
DFH: initialize()                   :      0.050u      0.000s      0.030w      1 calls
DFH: AO Construction                :      0.000u      0.000s      0.008w      1 calls
DFH: AO-Met. Contraction            :      0.017u      0.000s      0.003w      1 calls
HF: Form core H                     :      0.000u      0.017s      0.032w      2 calls
HF: Form S/X                        :      0.017u      0.000s      0.001w      2 calls
HF: Guess                           :      0.000u      0.000s      0.001w      2 calls
HF: Form G                          :      1.550u      0.017s      0.952w      8 calls
RV: Form V                          :      1.550u      0.017s      0.948w      8 calls
Properties                          :      0.367u      0.017s      0.225w   1776 calls
Functional                          :      0.750u      0.000s      0.439w   1776 calls
V_xc                                :      0.433u      0.000s      0.273w   1776 calls
JK: D                               :      0.000u      0.000s      0.003w    120 calls
JK: USO2AO                          :      0.000u      0.000s      0.001w    120 calls
JK: JK                              :      0.217u      0.000s      0.099w    120 calls
DFH: compute_JK()                   :      0.000u      0.000s      0.003w      8 calls
DFH: Grabbing AOs                   :      0.000u      0.000s      0.000w      8 calls
DFH: compute_J                      :      0.000u      0.000s      0.002w      8 calls
JK: AO2USO                          :      0.000u      0.000s      0.000w    120 calls
HF: Form F                          :      0.000u      0.000s      0.000w      8 calls
HF: DIIS                            :      0.017u      0.000s      0.014w      8 calls
DIISManager::add_entry              :      0.000u      0.000s      0.005w      8 calls
DIISManager::extrapolate            :      0.017u      0.000s      0.002w      8 calls
bMatrix setup                       :      0.000u      0.000s      0.001w      8 calls
bMatrix pseudoinverse               :      0.000u      0.000s      0.001w      8 calls
New vector                          :      0.017u      0.000s      0.000w      8 calls
HF: Form C                          :      0.000u      0.000s      0.005w      8 calls
HF: Form D                          :      0.000u      0.000s      0.000w      8 calls
Total PK formation time             :      0.317u      0.017s      0.205w      2 calls
PK computes JK                      :      0.217u      0.000s      0.096w    112 calls

--------------------------------------------------------------------------------------
V: Grid                             :      0.050u      0.000s      0.031w      3 calls
DFH: sparsity prep                  :      0.017u      0.000s      0.016w      1 calls
| Libint2ERI::Libint2ERI            :      0.017u      0.000s      0.010w      1 calls
DFH: initialize()                   :      0.050u      0.000s      0.030w      1 calls
| Libint2ERI::Libint2ERI            :      0.017u      0.000s      0.006w      2 calls
| DFH: AO Construction              :      0.000u      0.000s      0.008w      1 calls
| DFH: AO-Met. Contraction          :      0.017u      0.000s      0.003w      1 calls
HF: Form core H                     :      0.000u      0.017s      0.032w      2 calls
HF: Form S/X                        :      0.017u      0.000s      0.001w      2 calls
HF: Guess                           :      0.000u      0.000s      0.001w      2 calls
HF: Form G                          :      1.550u      0.017s      0.952w      8 calls
| RV: Form V                        :      1.550u      0.017s      0.948w      8 calls
| | Properties                      :      0.367u      0.017s      0.225w   1776 calls
| | Functional                      :      0.750u      0.000s      0.439w   1776 calls
| | V_xc                            :      0.433u      0.000s      0.273w   1776 calls
| JK: D                             :      0.000u      0.000s      0.000w      8 calls
| JK: USO2AO                        :      0.000u      0.000s      0.000w      8 calls
| JK: JK                            :      0.000u      0.000s      0.003w      8 calls
| | DFH: compute_JK()               :      0.000u      0.000s      0.003w      8 calls
| | | DFH: Grabbing AOs             :      0.000u      0.000s      0.000w      8 calls
| | | DFH: compute_J                :      0.000u      0.000s      0.002w      8 calls
| JK: AO2USO                        :      0.000u      0.000s      0.000w      8 calls
HF: Form F                          :      0.000u      0.000s      0.000w      8 calls
HF: DIIS                            :      0.017u      0.000s      0.014w      8 calls
| DIISManager::add_entry            :      0.000u      0.000s      0.005w      8 calls
| DIISManager::extrapolate          :      0.017u      0.000s      0.002w      8 calls
| | bMatrix setup                   :      0.000u      0.000s      0.001w      8 calls
| | bMatrix pseudoinverse           :      0.000u      0.000s      0.001w      8 calls
| | New vector                      :      0.017u      0.000s      0.000w      8 calls
HF: Form C                          :      0.000u      0.000s      0.005w      8 calls
HF: Form D                          :      0.000u      0.000s      0.000w      8 calls
Total PK formation time             :      0.317u      0.017s      0.205w      2 calls
| Libint2ERI::Libint2ERI            :      0.050u      0.017s      0.039w      4 calls
JK: D                               :      0.000u      0.000s      0.002w    112 calls
JK: USO2AO                          :      0.000u      0.000s      0.001w    112 calls
JK: JK                              :      0.217u      0.000s      0.096w    112 calls
| PK computes JK                    :      0.217u      0.000s      0.096w    112 calls
JK: AO2USO                          :      0.000u      0.000s      0.000w    112 calls

**************************************************************************************

Host: QUADRAXIS

Timers On : Thu Jan 13 13:06:06 2022
Timers Off: Thu Jan 13 13:06:13 2022

Wall Time:        6.51 seconds

                                                       Time (seconds)
Module                                       User      System        Wall        Calls
V: Grid                             :      0.050u      0.000s      0.027w      3 calls
DFH: sparsity prep                  :      0.017u      0.000s      0.012w      1 calls
Libint2ERI::Libint2ERI              :      0.083u      0.017s      0.039w      7 calls
DFH: initialize()                   :      0.067u      0.000s      0.039w      1 calls
DFH: AO Construction                :      0.033u      0.000s      0.014w      1 calls
DFH: AO-Met. Contraction            :      0.000u      0.000s      0.004w      1 calls
HF: Form core H                     :      0.017u      0.000s      0.030w      2 calls
HF: Form S/X                        :      0.000u      0.000s      0.002w      2 calls
HF: Guess                           :      0.000u      0.000s      0.002w      2 calls
HF: Form G                          :      1.333u      0.000s      0.801w      8 calls
RV: Form V                          :      1.317u      0.000s      0.798w      8 calls
Properties                          :      0.283u      0.000s      0.189w   1776 calls
Functional                          :      0.583u      0.000s      0.370w   1776 calls
V_xc                                :      0.400u      0.000s      0.231w   1776 calls
JK: D                               :      0.000u      0.000s      0.002w    108 calls
JK: USO2AO                          :      0.000u      0.000s      0.001w    108 calls
JK: JK                              :      0.133u      0.000s      0.071w    108 calls
DFH: compute_JK()                   :      0.017u      0.000s      0.002w      8 calls
DFH: Grabbing AOs                   :      0.000u      0.000s      0.000w      8 calls
DFH: compute_J                      :      0.017u      0.000s      0.002w      8 calls
JK: AO2USO                          :      0.000u      0.000s      0.000w    108 calls
HF: Form F                          :      0.000u      0.000s      0.000w      8 calls
HF: DIIS                            :      0.033u      0.000s      0.012w      8 calls
DIISManager::add_entry              :      0.000u      0.000s      0.005w      8 calls
DIISManager::extrapolate            :      0.017u      0.000s      0.001w      8 calls
bMatrix setup                       :      0.000u      0.000s      0.000w      8 calls
bMatrix pseudoinverse               :      0.017u      0.000s      0.001w      8 calls
New vector                          :      0.000u      0.000s      0.000w      8 calls
HF: Form C                          :      0.000u      0.000s      0.003w      8 calls
HF: Form D                          :      0.000u      0.000s      0.000w      8 calls
Total PK formation time             :      0.250u      0.017s      0.155w      2 calls
PK computes JK                      :      0.117u      0.000s      0.068w    100 calls

--------------------------------------------------------------------------------------
V: Grid                             :      0.050u      0.000s      0.027w      3 calls
DFH: sparsity prep                  :      0.017u      0.000s      0.012w      1 calls
| Libint2ERI::Libint2ERI            :      0.017u      0.000s      0.007w      1 calls
DFH: initialize()                   :      0.067u      0.000s      0.039w      1 calls
| Libint2ERI::Libint2ERI            :      0.017u      0.000s      0.007w      2 calls
| DFH: AO Construction              :      0.033u      0.000s      0.014w      1 calls
| DFH: AO-Met. Contraction          :      0.000u      0.000s      0.004w      1 calls
HF: Form core H                     :      0.017u      0.000s      0.030w      2 calls
HF: Form S/X                        :      0.000u      0.000s      0.002w      2 calls
HF: Guess                           :      0.000u      0.000s      0.002w      2 calls
HF: Form G                          :      1.333u      0.000s      0.801w      8 calls
| RV: Form V                        :      1.317u      0.000s      0.798w      8 calls
| | Properties                      :      0.283u      0.000s      0.189w   1776 calls
| | Functional                      :      0.583u      0.000s      0.370w   1776 calls
| | V_xc                            :      0.400u      0.000s      0.231w   1776 calls
| JK: D                             :      0.000u      0.000s      0.000w      8 calls
| JK: USO2AO                        :      0.000u      0.000s      0.000w      8 calls
| JK: JK                            :      0.017u      0.000s      0.002w      8 calls
| | DFH: compute_JK()               :      0.017u      0.000s      0.002w      8 calls
| | | DFH: Grabbing AOs             :      0.000u      0.000s      0.000w      8 calls
| | | DFH: compute_J                :      0.017u      0.000s      0.002w      8 calls
| JK: AO2USO                        :      0.000u      0.000s      0.000w      8 calls
HF: Form F                          :      0.000u      0.000s      0.000w      8 calls
HF: DIIS                            :      0.033u      0.000s      0.012w      8 calls
| DIISManager::add_entry            :      0.000u      0.000s      0.005w      8 calls
| DIISManager::extrapolate          :      0.017u      0.000s      0.001w      8 calls
| | bMatrix setup                   :      0.000u      0.000s      0.000w      8 calls
| | bMatrix pseudoinverse           :      0.017u      0.000s      0.001w      8 calls
| | New vector                      :      0.000u      0.000s      0.000w      8 calls
HF: Form C                          :      0.000u      0.000s      0.003w      8 calls
HF: Form D                          :      0.000u      0.000s      0.000w      8 calls
Total PK formation time             :      0.250u      0.017s      0.155w      2 calls
| Libint2ERI::Libint2ERI            :      0.050u      0.017s      0.025w      4 calls
JK: D                               :      0.000u      0.000s      0.002w    100 calls
JK: USO2AO                          :      0.000u      0.000s      0.001w    100 calls
JK: JK                              :      0.117u      0.000s      0.068w    100 calls
| PK computes JK                    :      0.117u      0.000s      0.068w    100 calls
JK: AO2USO                          :      0.000u      0.000s      0.000w    100 calls

**************************************************************************************

Host: QUADRAXIS

Timers On : Thu Jan 13 13:06:38 2022
Timers Off: Thu Jan 13 13:06:42 2022

Wall Time:        4.49 seconds

                                                       Time (seconds)
Module                                       User      System        Wall        Calls
V: Grid                             :      0.050u      0.000s      0.031w      3 calls
DFH: sparsity prep                  :      0.000u      0.017s      0.014w      1 calls
Libint2ERI::Libint2ERI              :      0.050u      0.017s      0.050w      7 calls
DFH: initialize()                   :      0.050u      0.000s      0.033w      1 calls
DFH: AO Construction                :      0.017u      0.000s      0.008w      1 calls
DFH: AO-Met. Contraction            :      0.000u      0.000s      0.004w      1 calls
HF: Form core H                     :      0.000u      0.000s      0.033w      2 calls
HF: Form S/X                        :      0.000u      0.000s      0.002w      2 calls
HF: Guess                           :      0.000u      0.000s      0.002w      2 calls
HF: Form G                          :      1.650u      0.000s      0.964w      8 calls
RV: Form V                          :      1.633u      0.000s      0.960w      8 calls
Properties                          :      0.333u      0.000s      0.226w   1776 calls
Functional                          :      0.717u      0.000s      0.447w   1776 calls
V_xc                                :      0.533u      0.000s      0.276w   1776 calls
JK: D                               :      0.000u      0.000s      0.001w     50 calls
JK: USO2AO                          :      0.000u      0.000s      0.000w     50 calls
JK: JK                              :      0.117u      0.000s      0.045w     50 calls
DFH: compute_JK()                   :      0.017u      0.000s      0.003w      8 calls
DFH: Grabbing AOs                   :      0.000u      0.000s      0.000w      8 calls
DFH: compute_J                      :      0.017u      0.000s      0.002w      8 calls
JK: AO2USO                          :      0.000u      0.000s      0.000w     50 calls
HF: Form F                          :      0.000u      0.000s      0.000w      8 calls
HF: DIIS                            :      0.000u      0.000s      0.014w      8 calls
DIISManager::add_entry              :      0.000u      0.000s      0.006w      8 calls
DIISManager::extrapolate            :      0.000u      0.000s      0.002w      8 calls
bMatrix setup                       :      0.000u      0.000s      0.000w      8 calls
bMatrix pseudoinverse               :      0.000u      0.000s      0.001w      8 calls
New vector                          :      0.000u      0.000s      0.000w      8 calls
HF: Form C                          :      0.000u      0.000s      0.004w      8 calls
HF: Form D                          :      0.000u      0.000s      0.000w      8 calls
Total PK formation time             :      0.317u      0.033s      0.204w      2 calls
PK computes JK                      :      0.100u      0.000s      0.042w     42 calls

--------------------------------------------------------------------------------------
V: Grid                             :      0.050u      0.000s      0.031w      3 calls
DFH: sparsity prep                  :      0.000u      0.017s      0.014w      1 calls
| Libint2ERI::Libint2ERI            :      0.000u      0.017s      0.009w      1 calls
DFH: initialize()                   :      0.050u      0.000s      0.033w      1 calls
| Libint2ERI::Libint2ERI            :      0.000u      0.000s      0.006w      2 calls
| DFH: AO Construction              :      0.017u      0.000s      0.008w      1 calls
| DFH: AO-Met. Contraction          :      0.000u      0.000s      0.004w      1 calls
HF: Form core H                     :      0.000u      0.000s      0.033w      2 calls
HF: Form S/X                        :      0.000u      0.000s      0.002w      2 calls
HF: Guess                           :      0.000u      0.000s      0.002w      2 calls
HF: Form G                          :      1.650u      0.000s      0.964w      8 calls
| RV: Form V                        :      1.633u      0.000s      0.960w      8 calls
| | Properties                      :      0.333u      0.000s      0.226w   1776 calls
| | Functional                      :      0.717u      0.000s      0.447w   1776 calls
| | V_xc                            :      0.533u      0.000s      0.276w   1776 calls
| JK: D                             :      0.000u      0.000s      0.000w      8 calls
| JK: USO2AO                        :      0.000u      0.000s      0.000w      8 calls
| JK: JK                            :      0.017u      0.000s      0.003w      8 calls
| | DFH: compute_JK()               :      0.017u      0.000s      0.003w      8 calls
| | | DFH: Grabbing AOs             :      0.000u      0.000s      0.000w      8 calls
| | | DFH: compute_J                :      0.017u      0.000s      0.002w      8 calls
| JK: AO2USO                        :      0.000u      0.000s      0.000w      8 calls
HF: Form F                          :      0.000u      0.000s      0.000w      8 calls
HF: DIIS                            :      0.000u      0.000s      0.014w      8 calls
| DIISManager::add_entry            :      0.000u      0.000s      0.006w      8 calls
| DIISManager::extrapolate          :      0.000u      0.000s      0.002w      8 calls
| | bMatrix setup                   :      0.000u      0.000s      0.000w      8 calls
| | bMatrix pseudoinverse           :      0.000u      0.000s      0.001w      8 calls
| | New vector                      :      0.000u      0.000s      0.000w      8 calls
HF: Form C                          :      0.000u      0.000s      0.004w      8 calls
HF: Form D                          :      0.000u      0.000s      0.000w      8 calls
Total PK formation time             :      0.317u      0.033s      0.204w      2 calls
| Libint2ERI::Libint2ERI            :      0.050u      0.000s      0.035w      4 calls
JK: D                               :      0.000u      0.000s      0.001w     42 calls
JK: USO2AO                          :      0.000u      0.000s      0.000w     42 calls
JK: JK                              :      0.100u      0.000s      0.042w     42 calls
| PK computes JK                    :      0.100u      0.000s      0.042w     42 calls
JK: AO2USO                          :      0.000u      0.000s      0.000w     42 calls

**************************************************************************************

Host: QUADRAXIS

Timers On : Thu Jan 13 13:07:13 2022
Timers Off: Thu Jan 13 13:07:18 2022

Wall Time:        4.23 seconds

                                                       Time (seconds)
Module                                       User      System        Wall        Calls
V: Grid                             :      0.033u      0.017s      0.033w      3 calls
DFH: sparsity prep                  :      0.017u      0.000s      0.016w      1 calls
Libint2ERI::Libint2ERI              :      0.067u      0.017s      0.046w      7 calls
DFH: initialize()                   :      0.050u      0.000s      0.031w      1 calls
DFH: AO Construction                :      0.000u      0.000s      0.007w      1 calls
DFH: AO-Met. Contraction            :      0.017u      0.000s      0.002w      1 calls
HF: Form core H                     :      0.017u      0.000s      0.025w      2 calls
HF: Form S/X                        :      0.000u      0.000s      0.001w      2 calls
HF: Guess                           :      0.000u      0.000s      0.001w      2 calls
HF: Form G                          :      1.500u      0.017s      0.904w      8 calls
RV: Form V                          :      1.500u      0.017s      0.901w      8 calls
Properties                          :      0.333u      0.017s      0.215w   1776 calls
Functional                          :      0.633u      0.000s      0.416w   1776 calls
V_xc                                :      0.533u      0.000s      0.261w   1776 calls
JK: D                               :      0.000u      0.000s      0.001w     51 calls
JK: USO2AO                          :      0.000u      0.000s      0.001w     51 calls
JK: JK                              :      0.050u      0.017s      0.039w     51 calls
DFH: compute_JK()                   :      0.000u      0.000s      0.002w      8 calls
DFH: Grabbing AOs                   :      0.000u      0.000s      0.000w      8 calls
DFH: compute_J                      :      0.000u      0.000s      0.002w      8 calls
JK: AO2USO                          :      0.000u      0.000s      0.000w     51 calls
HF: Form F                          :      0.000u      0.000s      0.000w      8 calls
HF: DIIS                            :      0.000u      0.000s      0.011w      8 calls
DIISManager::add_entry              :      0.000u      0.000s      0.004w      8 calls
DIISManager::extrapolate            :      0.000u      0.000s      0.001w      8 calls
bMatrix setup                       :      0.000u      0.000s      0.000w      8 calls
bMatrix pseudoinverse               :      0.000u      0.000s      0.000w      8 calls
New vector                          :      0.000u      0.000s      0.000w      8 calls
HF: Form C                          :      0.017u      0.000s      0.003w      8 calls
HF: Form D                          :      0.000u      0.000s      0.000w      8 calls
Total PK formation time             :      0.283u      0.017s      0.177w      2 calls
PK computes JK                      :      0.050u      0.017s      0.036w     43 calls

--------------------------------------------------------------------------------------
V: Grid                             :      0.033u      0.017s      0.033w      3 calls
DFH: sparsity prep                  :      0.017u      0.000s      0.016w      1 calls
| Libint2ERI::Libint2ERI            :      0.017u      0.000s      0.010w      1 calls
DFH: initialize()                   :      0.050u      0.000s      0.031w      1 calls
| Libint2ERI::Libint2ERI            :      0.017u      0.000s      0.007w      2 calls
| DFH: AO Construction              :      0.000u      0.000s      0.007w      1 calls
| DFH: AO-Met. Contraction          :      0.017u      0.000s      0.002w      1 calls
HF: Form core H                     :      0.017u      0.000s      0.025w      2 calls
HF: Form S/X                        :      0.000u      0.000s      0.001w      2 calls
HF: Guess                           :      0.000u      0.000s      0.001w      2 calls
HF: Form G                          :      1.500u      0.017s      0.904w      8 calls
| RV: Form V                        :      1.500u      0.017s      0.901w      8 calls
| | Properties                      :      0.333u      0.017s      0.215w   1776 calls
| | Functional                      :      0.633u      0.000s      0.416w   1776 calls
| | V_xc                            :      0.533u      0.000s      0.261w   1776 calls
| JK: D                             :      0.000u      0.000s      0.000w      8 calls
| JK: USO2AO                        :      0.000u      0.000s      0.000w      8 calls
| JK: JK                            :      0.000u      0.000s      0.002w      8 calls
| | DFH: compute_JK()               :      0.000u      0.000s      0.002w      8 calls
| | | DFH: Grabbing AOs             :      0.000u      0.000s      0.000w      8 calls
| | | DFH: compute_J                :      0.000u      0.000s      0.002w      8 calls
| JK: AO2USO                        :      0.000u      0.000s      0.000w      8 calls
HF: Form F                          :      0.000u      0.000s      0.000w      8 calls
HF: DIIS                            :      0.000u      0.000s      0.011w      8 calls
| DIISManager::add_entry            :      0.000u      0.000s      0.004w      8 calls
| DIISManager::extrapolate          :      0.000u      0.000s      0.001w      8 calls
| | bMatrix setup                   :      0.000u      0.000s      0.000w      8 calls
| | bMatrix pseudoinverse           :      0.000u      0.000s      0.000w      8 calls
| | New vector                      :      0.000u      0.000s      0.000w      8 calls
HF: Form C                          :      0.017u      0.000s      0.003w      8 calls
HF: Form D                          :      0.000u      0.000s      0.000w      8 calls
Total PK formation time             :      0.283u      0.017s      0.177w      2 calls
| Libint2ERI::Libint2ERI            :      0.033u      0.017s      0.029w      4 calls
JK: D                               :      0.000u      0.000s      0.001w     43 calls
JK: USO2AO                          :      0.000u      0.000s      0.000w     43 calls
JK: JK                              :      0.050u      0.017s      0.036w     43 calls
| PK computes JK                    :      0.050u      0.017s      0.036w     43 calls
JK: AO2USO                          :      0.000u      0.000s      0.000w     43 calls

**************************************************************************************

Host: QUADRAXIS

Timers On : Thu Jan 13 13:09:45 2022
Timers Off: Thu Jan 13 13:09:49 2022

Wall Time:        4.36 seconds

                                                       Time (seconds)
Module                                       User      System        Wall        Calls
V: Grid                             :      0.050u      0.000s      0.035w      3 calls
DFH: sparsity prep                  :      0.017u      0.000s      0.016w      1 calls
Libint2ERI::Libint2ERI              :      0.100u      0.017s      0.059w      7 calls
DFH: initialize()                   :      0.050u      0.000s      0.035w      1 calls
DFH: AO Construction                :      0.017u      0.000s      0.007w      1 calls
DFH: AO-Met. Contraction            :      0.000u      0.000s      0.002w      1 calls
HF: Form core H                     :      0.017u      0.017s      0.029w      2 calls
HF: Form S/X                        :      0.000u      0.000s      0.002w      2 calls
HF: Guess                           :      0.000u      0.000s      0.002w      2 calls
HF: Form G                          :      1.617u      0.017s      0.975w      8 calls
RV: Form V                          :      1.617u      0.017s      0.971w      8 calls
Properties                          :      0.367u      0.000s      0.232w   1776 calls
Functional                          :      0.833u      0.017s      0.449w   1776 calls
V_xc                                :      0.417u      0.000s      0.278w   1776 calls
JK: D                               :      0.000u      0.000s      0.001w     55 calls
JK: USO2AO                          :      0.000u      0.000s      0.000w     55 calls
JK: JK                              :      0.100u      0.000s      0.046w     55 calls
DFH: compute_JK()                   :      0.000u      0.000s      0.002w      8 calls
DFH: Grabbing AOs                   :      0.000u      0.000s      0.000w      8 calls
DFH: compute_J                      :      0.000u      0.000s      0.002w      8 calls
JK: AO2USO                          :      0.000u      0.000s      0.000w     55 calls
HF: Form F                          :      0.000u      0.000s      0.000w      8 calls
HF: DIIS                            :      0.017u      0.000s      0.015w      8 calls
DIISManager::add_entry              :      0.000u      0.000s      0.006w      8 calls
DIISManager::extrapolate            :      0.017u      0.000s      0.002w      8 calls
bMatrix setup                       :      0.000u      0.000s      0.001w      8 calls
bMatrix pseudoinverse               :      0.017u      0.000s      0.001w      8 calls
New vector                          :      0.000u      0.000s      0.000w      8 calls
HF: Form C                          :      0.000u      0.000s      0.003w      8 calls
HF: Form D                          :      0.000u      0.000s      0.000w      8 calls
Total PK formation time             :      0.317u      0.033s      0.208w      2 calls
PK computes JK                      :      0.100u      0.000s      0.043w     47 calls

--------------------------------------------------------------------------------------
V: Grid                             :      0.050u      0.000s      0.035w      3 calls
DFH: sparsity prep                  :      0.017u      0.000s      0.016w      1 calls
| Libint2ERI::Libint2ERI            :      0.017u      0.000s      0.010w      1 calls
DFH: initialize()                   :      0.050u      0.000s      0.035w      1 calls
| Libint2ERI::Libint2ERI            :      0.017u      0.000s      0.009w      2 calls
| DFH: AO Construction              :      0.017u      0.000s      0.007w      1 calls
| DFH: AO-Met. Contraction          :      0.000u      0.000s      0.002w      1 calls
HF: Form core H                     :      0.017u      0.017s      0.029w      2 calls
HF: Form S/X                        :      0.000u      0.000s      0.002w      2 calls
HF: Guess                           :      0.000u      0.000s      0.002w      2 calls
HF: Form G                          :      1.617u      0.017s      0.975w      8 calls
| RV: Form V                        :      1.617u      0.017s      0.971w      8 calls
| | Properties                      :      0.367u      0.000s      0.232w   1776 calls
| | Functional                      :      0.833u      0.017s      0.449w   1776 calls
| | V_xc                            :      0.417u      0.000s      0.278w   1776 calls
| JK: D                             :      0.000u      0.000s      0.000w      8 calls
| JK: USO2AO                        :      0.000u      0.000s      0.000w      8 calls
| JK: JK                            :      0.000u      0.000s      0.002w      8 calls
| | DFH: compute_JK()               :      0.000u      0.000s      0.002w      8 calls
| | | DFH: Grabbing AOs             :      0.000u      0.000s      0.000w      8 calls
| | | DFH: compute_J                :      0.000u      0.000s      0.002w      8 calls
| JK: AO2USO                        :      0.000u      0.000s      0.000w      8 calls
HF: Form F                          :      0.000u      0.000s      0.000w      8 calls
HF: DIIS                            :      0.017u      0.000s      0.015w      8 calls
| DIISManager::add_entry            :      0.000u      0.000s      0.006w      8 calls
| DIISManager::extrapolate          :      0.017u      0.000s      0.002w      8 calls
| | bMatrix setup                   :      0.000u      0.000s      0.001w      8 calls
| | bMatrix pseudoinverse           :      0.017u      0.000s      0.001w      8 calls
| | New vector                      :      0.000u      0.000s      0.000w      8 calls
HF: Form C                          :      0.000u      0.000s      0.003w      8 calls
HF: Form D                          :      0.000u      0.000s      0.000w      8 calls
Total PK formation time             :      0.317u      0.033s      0.208w      2 calls
| Libint2ERI::Libint2ERI            :      0.067u      0.017s      0.039w      4 calls
JK: D                               :      0.000u      0.000s      0.001w     47 calls
JK: USO2AO                          :      0.000u      0.000s      0.000w     47 calls
JK: JK                              :      0.100u      0.000s      0.043w     47 calls
| PK computes JK                    :      0.100u      0.000s      0.043w     47 calls
JK: AO2USO                          :      0.000u      0.000s      0.000w     47 calls

**************************************************************************************

Host: QUADRAXIS

Timers On : Thu Jan 13 13:13:00 2022
Timers Off: Thu Jan 13 13:13:03 2022

Wall Time:        2.11 seconds

                                                       Time (seconds)
Module                                       User      System        Wall        Calls

--------------------------------------------------------------------------------------

**************************************************************************************

Host: QUADRAXIS

Timers On : Thu Jan 13 13:13:14 2022
Timers Off: Thu Jan 13 13:13:19 2022

Wall Time:        4.51 seconds

                                                       Time (seconds)
Module                                       User      System        Wall        Calls
V: Grid                             :      0.067u      0.000s      0.032w      3 calls
DFH: sparsity prep                  :      0.033u      0.000s      0.017w      1 calls
Libint2ERI::Libint2ERI              :      0.100u      0.000s      0.061w      7 calls
DFH: initialize()                   :      0.050u      0.000s      0.034w      1 calls
DFH: AO Construction                :      0.017u      0.000s      0.008w      1 calls
DFH: AO-Met. Contraction            :      0.000u      0.000s      0.003w      1 calls
HF: Form core H                     :      0.000u      0.000s      0.021w      2 calls
HF: Form S/X                        :      0.000u      0.000s      0.002w      2 calls
HF: Guess                           :      0.017u      0.017s      0.002w      2 calls
HF: Form G                          :      1.617u      0.033s      0.979w      8 calls
RV: Form V                          :      1.617u      0.033s      0.975w      8 calls
Properties                          :      0.450u      0.033s      0.235w   1776 calls
Functional                          :      0.650u      0.000s      0.448w   1776 calls
V_xc                                :      0.500u      0.000s      0.281w   1776 calls
JK: D                               :      0.000u      0.000s      0.001w     52 calls
JK: USO2AO                          :      0.000u      0.000s      0.001w     52 calls
JK: JK                              :      0.067u      0.000s      0.046w     52 calls
DFH: compute_JK()                   :      0.000u      0.000s      0.003w      8 calls
DFH: Grabbing AOs                   :      0.000u      0.000s      0.000w      8 calls
DFH: compute_J                      :      0.000u      0.000s      0.003w      8 calls
JK: AO2USO                          :      0.000u      0.000s      0.000w     52 calls
HF: Form F                          :      0.000u      0.000s      0.000w      8 calls
HF: DIIS                            :      0.033u      0.000s      0.015w      8 calls
DIISManager::add_entry              :      0.017u      0.000s      0.007w      8 calls
DIISManager::extrapolate            :      0.000u      0.000s      0.002w      8 calls
bMatrix setup                       :      0.000u      0.000s      0.001w      8 calls
bMatrix pseudoinverse               :      0.000u      0.000s      0.001w      8 calls
New vector                          :      0.000u      0.000s      0.000w      8 calls
HF: Form C                          :      0.000u      0.000s      0.004w      8 calls
HF: Form D                          :      0.000u      0.000s      0.000w      8 calls
Total PK formation time             :      0.350u      0.000s      0.210w      2 calls
PK computes JK                      :      0.067u      0.000s      0.043w     44 calls

--------------------------------------------------------------------------------------
V: Grid                             :      0.067u      0.000s      0.032w      3 calls
DFH: sparsity prep                  :      0.033u      0.000s      0.017w      1 calls
| Libint2ERI::Libint2ERI            :      0.017u      0.000s      0.010w      1 calls
DFH: initialize()                   :      0.050u      0.000s      0.034w      1 calls
| Libint2ERI::Libint2ERI            :      0.017u      0.000s      0.008w      2 calls
| DFH: AO Construction              :      0.017u      0.000s      0.008w      1 calls
| DFH: AO-Met. Contraction          :      0.000u      0.000s      0.003w      1 calls
HF: Form core H                     :      0.000u      0.000s      0.021w      2 calls
HF: Form S/X                        :      0.000u      0.000s      0.002w      2 calls
HF: Guess                           :      0.017u      0.017s      0.002w      2 calls
HF: Form G                          :      1.617u      0.033s      0.979w      8 calls
| RV: Form V                        :      1.617u      0.033s      0.975w      8 calls
| | Properties                      :      0.450u      0.033s      0.235w   1776 calls
| | Functional                      :      0.650u      0.000s      0.448w   1776 calls
| | V_xc                            :      0.500u      0.000s      0.281w   1776 calls
| JK: D                             :      0.000u      0.000s      0.000w      8 calls
| JK: USO2AO                        :      0.000u      0.000s      0.000w      8 calls
| JK: JK                            :      0.000u      0.000s      0.003w      8 calls
| | DFH: compute_JK()               :      0.000u      0.000s      0.003w      8 calls
| | | DFH: Grabbing AOs             :      0.000u      0.000s      0.000w      8 calls
| | | DFH: compute_J                :      0.000u      0.000s      0.003w      8 calls
| JK: AO2USO                        :      0.000u      0.000s      0.000w      8 calls
HF: Form F                          :      0.000u      0.000s      0.000w      8 calls
HF: DIIS                            :      0.033u      0.000s      0.015w      8 calls
| DIISManager::add_entry            :      0.017u      0.000s      0.007w      8 calls
| DIISManager::extrapolate          :      0.000u      0.000s      0.002w      8 calls
| | bMatrix setup                   :      0.000u      0.000s      0.001w      8 calls
| | bMatrix pseudoinverse           :      0.000u      0.000s      0.001w      8 calls
| | New vector                      :      0.000u      0.000s      0.000w      8 calls
HF: Form C                          :      0.000u      0.000s      0.004w      8 calls
HF: Form D                          :      0.000u      0.000s      0.000w      8 calls
Total PK formation time             :      0.350u      0.000s      0.210w      2 calls
| Libint2ERI::Libint2ERI            :      0.067u      0.000s      0.043w      4 calls
JK: D                               :      0.000u      0.000s      0.001w     44 calls
JK: USO2AO                          :      0.000u      0.000s      0.000w     44 calls
JK: JK                              :      0.067u      0.000s      0.043w     44 calls
| PK computes JK                    :      0.067u      0.000s      0.043w     44 calls
JK: AO2USO                          :      0.000u      0.000s      0.000w     44 calls

**************************************************************************************

Host: QUADRAXIS

Timers On : Thu Jan 13 13:13:31 2022
Timers Off: Thu Jan 13 13:13:35 2022

Wall Time:        4.61 seconds

                                                       Time (seconds)
Module                                       User      System        Wall        Calls
V: Grid                             :      0.050u      0.000s      0.032w      3 calls
DFH: sparsity prep                  :      0.017u      0.000s      0.016w      1 calls
Libint2ERI::Libint2ERI              :      0.067u      0.083s      0.062w      7 calls
DFH: initialize()                   :      0.050u      0.017s      0.043w      1 calls
DFH: AO Construction                :      0.033u      0.000s      0.013w      1 calls
DFH: AO-Met. Contraction            :      0.000u      0.000s      0.003w      1 calls
HF: Form core H                     :      0.017u      0.000s      0.028w      2 calls
HF: Form S/X                        :      0.017u      0.000s      0.001w      2 calls
HF: Guess                           :      0.000u      0.000s      0.002w      2 calls
HF: Form G                          :      1.900u      0.000s      1.135w      8 calls
RV: Form V                          :      1.900u      0.000s      1.131w      8 calls
Properties                          :      0.467u      0.000s      0.280w   1776 calls
Functional                          :      0.900u      0.000s      0.500w   1776 calls
V_xc                                :      0.517u      0.000s      0.336w   1776 calls
JK: D                               :      0.000u      0.000s      0.001w     51 calls
JK: USO2AO                          :      0.000u      0.000s      0.000w     51 calls
JK: JK                              :      0.067u      0.000s      0.044w     51 calls
DFH: compute_JK()                   :      0.000u      0.000s      0.003w      8 calls
DFH: Grabbing AOs                   :      0.000u      0.000s      0.000w      8 calls
DFH: compute_J                      :      0.000u      0.000s      0.003w      8 calls
JK: AO2USO                          :      0.000u      0.000s      0.000w     51 calls
HF: Form F                          :      0.000u      0.000s      0.000w      8 calls
HF: DIIS                            :      0.033u      0.000s      0.019w      8 calls
DIISManager::add_entry              :      0.000u      0.000s      0.005w      8 calls
DIISManager::extrapolate            :      0.000u      0.000s      0.002w      8 calls
bMatrix setup                       :      0.000u      0.000s      0.001w      8 calls
bMatrix pseudoinverse               :      0.000u      0.000s      0.001w      8 calls
New vector                          :      0.000u      0.000s      0.000w      8 calls
HF: Form C                          :      0.017u      0.000s      0.004w      8 calls
HF: Form D                          :      0.000u      0.000s      0.000w      8 calls
Total PK formation time             :      0.283u      0.083s      0.216w      2 calls
PK computes JK                      :      0.067u      0.000s      0.040w     43 calls

--------------------------------------------------------------------------------------
V: Grid                             :      0.050u      0.000s      0.032w      3 calls
DFH: sparsity prep                  :      0.017u      0.000s      0.016w      1 calls
| Libint2ERI::Libint2ERI            :      0.017u      0.000s      0.009w      1 calls
DFH: initialize()                   :      0.050u      0.017s      0.043w      1 calls
| Libint2ERI::Libint2ERI            :      0.000u      0.017s      0.009w      2 calls
| DFH: AO Construction              :      0.033u      0.000s      0.013w      1 calls
| DFH: AO-Met. Contraction          :      0.000u      0.000s      0.003w      1 calls
HF: Form core H                     :      0.017u      0.000s      0.028w      2 calls
HF: Form S/X                        :      0.017u      0.000s      0.001w      2 calls
HF: Guess                           :      0.000u      0.000s      0.002w      2 calls
HF: Form G                          :      1.900u      0.000s      1.135w      8 calls
| RV: Form V                        :      1.900u      0.000s      1.131w      8 calls
| | Properties                      :      0.467u      0.000s      0.280w   1776 calls
| | Functional                      :      0.900u      0.000s      0.500w   1776 calls
| | V_xc                            :      0.517u      0.000s      0.336w   1776 calls
| JK: D                             :      0.000u      0.000s      0.000w      8 calls
| JK: USO2AO                        :      0.000u      0.000s      0.000w      8 calls
| JK: JK                            :      0.000u      0.000s      0.003w      8 calls
| | DFH: compute_JK()               :      0.000u      0.000s      0.003w      8 calls
| | | DFH: Grabbing AOs             :      0.000u      0.000s      0.000w      8 calls
| | | DFH: compute_J                :      0.000u      0.000s      0.003w      8 calls
| JK: AO2USO                        :      0.000u      0.000s      0.000w      8 calls
HF: Form F                          :      0.000u      0.000s      0.000w      8 calls
HF: DIIS                            :      0.033u      0.000s      0.019w      8 calls
| DIISManager::add_entry            :      0.000u      0.000s      0.005w      8 calls
| DIISManager::extrapolate          :      0.000u      0.000s      0.002w      8 calls
| | bMatrix setup                   :      0.000u      0.000s      0.001w      8 calls
| | bMatrix pseudoinverse           :      0.000u      0.000s      0.001w      8 calls
| | New vector                      :      0.000u      0.000s      0.000w      8 calls
HF: Form C                          :      0.017u      0.000s      0.004w      8 calls
HF: Form D                          :      0.000u      0.000s      0.000w      8 calls
Total PK formation time             :      0.283u      0.083s      0.216w      2 calls
| Libint2ERI::Libint2ERI            :      0.050u      0.067s      0.044w      4 calls
JK: D                               :      0.000u      0.000s      0.001w     43 calls
JK: USO2AO                          :      0.000u      0.000s      0.000w     43 calls
JK: JK                              :      0.067u      0.000s      0.041w     43 calls
| PK computes JK                    :      0.067u      0.000s      0.040w     43 calls
JK: AO2USO                          :      0.000u      0.000s      0.000w     43 calls

**************************************************************************************

Host: QUADRAXIS

Timers On : Thu Jan 13 13:16:13 2022
Timers Off: Thu Jan 13 13:16:19 2022

Wall Time:        5.80 seconds

                                                       Time (seconds)
Module                                       User      System        Wall        Calls
V: Grid                             :      0.117u      0.000s      0.059w      6 calls
DFH: sparsity prep                  :      0.050u      0.000s      0.030w      2 calls
Libint2ERI::Libint2ERI              :      0.183u      0.033s      0.100w     14 calls
DFH: initialize()                   :      0.100u      0.017s      0.062w      2 calls
DFH: AO Construction                :      0.017u      0.000s      0.016w      2 calls
DFH: AO-Met. Contraction            :      0.017u      0.000s      0.004w      2 calls
HF: Form core H                     :      0.000u      0.000s      0.051w      4 calls
HF: Form S/X                        :      0.000u      0.000s      0.004w      4 calls
HF: Guess                           :      0.000u      0.000s      0.004w      4 calls
HF: Form G                          :      3.033u      0.000s      1.847w     16 calls
RV: Form V                          :      3.033u      0.000s      1.840w     16 calls
Properties                          :      0.633u      0.000s      0.438w   3552 calls
Functional                          :      1.417u      0.000s      0.858w   3552 calls
V_xc                                :      0.883u      0.000s      0.523w   3552 calls
JK: D                               :      0.017u      0.000s      0.001w     62 calls
JK: USO2AO                          :      0.000u      0.000s      0.001w     62 calls
JK: JK                              :      0.067u      0.000s      0.047w     62 calls
DFH: compute_JK()                   :      0.000u      0.000s      0.005w     16 calls
DFH: Grabbing AOs                   :      0.000u      0.000s      0.000w     16 calls
DFH: compute_J                      :      0.000u      0.000s      0.004w     16 calls
JK: AO2USO                          :      0.000u      0.000s      0.000w     62 calls
HF: Form F                          :      0.000u      0.000s      0.000w     16 calls
HF: DIIS                            :      0.067u      0.017s      0.031w     16 calls
DIISManager::add_entry              :      0.000u      0.000s      0.014w     16 calls
DIISManager::extrapolate            :      0.000u      0.017s      0.004w     16 calls
bMatrix setup                       :      0.000u      0.017s      0.001w     16 calls
bMatrix pseudoinverse               :      0.000u      0.000s      0.001w     16 calls
New vector                          :      0.000u      0.000s      0.001w     16 calls
HF: Form C                          :      0.017u      0.000s      0.008w     16 calls
HF: Form D                          :      0.000u      0.000s      0.000w     16 calls
Total PK formation time             :      0.617u      0.050s      0.390w      4 calls
PK computes JK                      :      0.067u      0.000s      0.042w     46 calls

--------------------------------------------------------------------------------------
V: Grid                             :      0.117u      0.000s      0.059w      6 calls
DFH: sparsity prep                  :      0.050u      0.000s      0.030w      2 calls
| Libint2ERI::Libint2ERI            :      0.033u      0.000s      0.019w      2 calls
DFH: initialize()                   :      0.100u      0.017s      0.062w      2 calls
| Libint2ERI::Libint2ERI            :      0.033u      0.000s      0.012w      4 calls
| DFH: AO Construction              :      0.017u      0.000s      0.016w      2 calls
| DFH: AO-Met. Contraction          :      0.017u      0.000s      0.004w      2 calls
HF: Form core H                     :      0.000u      0.000s      0.051w      4 calls
HF: Form S/X                        :      0.000u      0.000s      0.004w      4 calls
HF: Guess                           :      0.000u      0.000s      0.004w      4 calls
HF: Form G                          :      3.033u      0.000s      1.847w     16 calls
| RV: Form V                        :      3.033u      0.000s      1.840w     16 calls
| | Properties                      :      0.633u      0.000s      0.438w   3552 calls
| | Functional                      :      1.417u      0.000s      0.858w   3552 calls
| | V_xc                            :      0.883u      0.000s      0.523w   3552 calls
| JK: D                             :      0.000u      0.000s      0.000w     16 calls
| JK: USO2AO                        :      0.000u      0.000s      0.000w     16 calls
| JK: JK                            :      0.000u      0.000s      0.005w     16 calls
| | DFH: compute_JK()               :      0.000u      0.000s      0.005w     16 calls
| | | DFH: Grabbing AOs             :      0.000u      0.000s      0.000w     16 calls
| | | DFH: compute_J                :      0.000u      0.000s      0.004w     16 calls
| JK: AO2USO                        :      0.000u      0.000s      0.000w     16 calls
HF: Form F                          :      0.000u      0.000s      0.000w     16 calls
HF: DIIS                            :      0.067u      0.017s      0.031w     16 calls
| DIISManager::add_entry            :      0.000u      0.000s      0.014w     16 calls
| DIISManager::extrapolate          :      0.000u      0.017s      0.004w     16 calls
| | bMatrix setup                   :      0.000u      0.017s      0.001w     16 calls
| | bMatrix pseudoinverse           :      0.000u      0.000s      0.001w     16 calls
| | New vector                      :      0.000u      0.000s      0.001w     16 calls
HF: Form C                          :      0.017u      0.000s      0.008w     16 calls
HF: Form D                          :      0.000u      0.000s      0.000w     16 calls
Total PK formation time             :      0.617u      0.050s      0.390w      4 calls
| Libint2ERI::Libint2ERI            :      0.117u      0.033s      0.070w      8 calls
JK: D                               :      0.017u      0.000s      0.001w     46 calls
JK: USO2AO                          :      0.000u      0.000s      0.001w     46 calls
JK: JK                              :      0.067u      0.000s      0.042w     46 calls
| PK computes JK                    :      0.067u      0.000s      0.042w     46 calls
JK: AO2USO                          :      0.000u      0.000s      0.000w     46 calls

**************************************************************************************

Host: QUADRAXIS

Timers On : Thu Jan 13 13:17:33 2022
Timers Off: Thu Jan 13 13:17:42 2022

Wall Time:        8.92 seconds

                                                       Time (seconds)
Module                                       User      System        Wall        Calls
V: Grid                             :      0.167u      0.017s      0.097w      9 calls
DFH: sparsity prep                  :      0.033u      0.017s      0.040w      3 calls
Libint2ERI::Libint2ERI              :      0.133u      0.050s      0.145w     21 calls
DFH: initialize()                   :      0.133u      0.017s      0.088w      3 calls
DFH: AO Construction                :      0.017u      0.000s      0.022w      3 calls
DFH: AO-Met. Contraction            :      0.017u      0.000s      0.007w      3 calls
HF: Form core H                     :      0.017u      0.000s      0.077w      6 calls
HF: Form S/X                        :      0.033u      0.000s      0.005w      6 calls
HF: Guess                           :      0.033u      0.000s      0.005w      6 calls
HF: Form G                          :      4.600u      0.050s      2.779w     24 calls
RV: Form V                          :      4.567u      0.050s      2.768w     24 calls
Properties                          :      1.233u      0.000s      0.659w   5328 calls
Functional                          :      2.083u      0.033s      1.286w   5328 calls
V_xc                                :      1.150u      0.017s      0.791w   5328 calls
JK: D                               :      0.000u      0.000s      0.001w     62 calls
JK: USO2AO                          :      0.000u      0.000s      0.001w     62 calls
JK: JK                              :      0.083u      0.000s      0.042w     62 calls
DFH: compute_JK()                   :      0.033u      0.000s      0.008w     24 calls
DFH: Grabbing AOs                   :      0.000u      0.000s      0.000w     24 calls
DFH: compute_J                      :      0.033u      0.000s      0.007w     24 calls
JK: AO2USO                          :      0.000u      0.000s      0.000w     62 calls
HF: Form F                          :      0.000u      0.000s      0.000w     24 calls
HF: DIIS                            :      0.033u      0.000s      0.037w     24 calls
DIISManager::add_entry              :      0.000u      0.000s      0.014w     24 calls
DIISManager::extrapolate            :      0.017u      0.000s      0.005w     24 calls
bMatrix setup                       :      0.017u      0.000s      0.002w     24 calls
bMatrix pseudoinverse               :      0.000u      0.000s      0.002w     24 calls
New vector                          :      0.000u      0.000s      0.001w     24 calls
HF: Form C                          :      0.017u      0.000s      0.011w     24 calls
HF: Form D                          :      0.000u      0.000s      0.000w     24 calls
Total PK formation time             :      0.900u      0.050s      0.570w      6 calls
PK computes JK                      :      0.050u      0.000s      0.034w     38 calls

--------------------------------------------------------------------------------------
V: Grid                             :      0.167u      0.017s      0.097w      9 calls
DFH: sparsity prep                  :      0.033u      0.017s      0.040w      3 calls
| Libint2ERI::Libint2ERI            :      0.017u      0.000s      0.022w      3 calls
DFH: initialize()                   :      0.133u      0.017s      0.088w      3 calls
| Libint2ERI::Libint2ERI            :      0.000u      0.000s      0.019w      6 calls
| DFH: AO Construction              :      0.017u      0.000s      0.022w      3 calls
| DFH: AO-Met. Contraction          :      0.017u      0.000s      0.007w      3 calls
HF: Form core H                     :      0.017u      0.000s      0.077w      6 calls
HF: Form S/X                        :      0.033u      0.000s      0.005w      6 calls
HF: Guess                           :      0.033u      0.000s      0.005w      6 calls
HF: Form G                          :      4.600u      0.050s      2.779w     24 calls
| RV: Form V                        :      4.567u      0.050s      2.768w     24 calls
| | Properties                      :      1.233u      0.000s      0.659w   5328 calls
| | Functional                      :      2.083u      0.033s      1.286w   5328 calls
| | V_xc                            :      1.150u      0.017s      0.791w   5328 calls
| JK: D                             :      0.000u      0.000s      0.000w     24 calls
| JK: USO2AO                        :      0.000u      0.000s      0.000w     24 calls
| JK: JK                            :      0.033u      0.000s      0.008w     24 calls
| | DFH: compute_JK()               :      0.033u      0.000s      0.008w     24 calls
| | | DFH: Grabbing AOs             :      0.000u      0.000s      0.000w     24 calls
| | | DFH: compute_J                :      0.033u      0.000s      0.007w     24 calls
| JK: AO2USO                        :      0.000u      0.000s      0.000w     24 calls
HF: Form F                          :      0.000u      0.000s      0.000w     24 calls
HF: DIIS                            :      0.033u      0.000s      0.037w     24 calls
| DIISManager::add_entry            :      0.000u      0.000s      0.014w     24 calls
| DIISManager::extrapolate          :      0.017u      0.000s      0.005w     24 calls
| | bMatrix setup                   :      0.017u      0.000s      0.002w     24 calls
| | bMatrix pseudoinverse           :      0.000u      0.000s      0.002w     24 calls
| | New vector                      :      0.000u      0.000s      0.001w     24 calls
HF: Form C                          :      0.017u      0.000s      0.011w     24 calls
HF: Form D                          :      0.000u      0.000s      0.000w     24 calls
Total PK formation time             :      0.900u      0.050s      0.570w      6 calls
| Libint2ERI::Libint2ERI            :      0.117u      0.050s      0.105w     12 calls
JK: D                               :      0.000u      0.000s      0.001w     38 calls
JK: USO2AO                          :      0.000u      0.000s      0.000w     38 calls
JK: JK                              :      0.050u      0.000s      0.035w     38 calls
| PK computes JK                    :      0.050u      0.000s      0.034w     38 calls
JK: AO2USO                          :      0.000u      0.000s      0.000w     38 calls

**************************************************************************************

Host: QUADRAXIS

Timers On : Thu Jan 13 13:22:34 2022
Timers Off: Thu Jan 13 13:22:42 2022

Wall Time:        8.16 seconds

                                                       Time (seconds)
Module                                       User      System        Wall        Calls
V: Grid                             :      0.167u      0.000s      0.095w      9 calls
DFH: sparsity prep                  :      0.050u      0.017s      0.040w      3 calls
Libint2ERI::Libint2ERI              :      0.183u      0.000s      0.143w     21 calls
DFH: initialize()                   :      0.117u      0.033s      0.091w      3 calls
DFH: AO Construction                :      0.017u      0.017s      0.023w      3 calls
DFH: AO-Met. Contraction            :      0.017u      0.000s      0.007w      3 calls
HF: Form core H                     :      0.017u      0.000s      0.071w      6 calls
HF: Form S/X                        :      0.000u      0.000s      0.004w      6 calls
HF: Guess                           :      0.033u      0.000s      0.005w      6 calls
HF: Form G                          :      4.550u      0.083s      2.815w     24 calls
RV: Form V                          :      4.533u      0.083s      2.805w     24 calls
Properties                          :      1.283u      0.017s      0.671w   5328 calls
Functional                          :      1.800u      0.050s      1.293w   5328 calls
V_xc                                :      1.383u      0.017s      0.808w   5328 calls
JK: D                               :      0.017u      0.000s      0.002w     73 calls
JK: USO2AO                          :      0.000u      0.000s      0.001w     73 calls
JK: JK                              :      0.067u      0.000s      0.050w     73 calls
DFH: compute_JK()                   :      0.017u      0.000s      0.007w     24 calls
DFH: Grabbing AOs                   :      0.000u      0.000s      0.000w     24 calls
DFH: compute_J                      :      0.017u      0.000s      0.006w     24 calls
JK: AO2USO                          :      0.000u      0.000s      0.000w     73 calls
HF: Form F                          :      0.000u      0.000s      0.001w     24 calls
HF: DIIS                            :      0.067u      0.000s      0.041w     24 calls
DIISManager::add_entry              :      0.000u      0.000s      0.018w     24 calls
DIISManager::extrapolate            :      0.000u      0.000s      0.005w     24 calls
bMatrix setup                       :      0.000u      0.000s      0.002w     24 calls
bMatrix pseudoinverse               :      0.000u      0.000s      0.002w     24 calls
New vector                          :      0.000u      0.000s      0.001w     24 calls
HF: Form C                          :      0.017u      0.000s      0.010w     24 calls
HF: Form D                          :      0.000u      0.000s      0.000w     24 calls
Total PK formation time             :      0.933u      0.000s      0.575w      6 calls
PK computes JK                      :      0.050u      0.000s      0.043w     49 calls

--------------------------------------------------------------------------------------
V: Grid                             :      0.167u      0.000s      0.095w      9 calls
DFH: sparsity prep                  :      0.050u      0.017s      0.040w      3 calls
| Libint2ERI::Libint2ERI            :      0.017u      0.000s      0.024w      3 calls
DFH: initialize()                   :      0.117u      0.033s      0.091w      3 calls
| Libint2ERI::Libint2ERI            :      0.017u      0.000s      0.021w      6 calls
| DFH: AO Construction              :      0.017u      0.017s      0.023w      3 calls
| DFH: AO-Met. Contraction          :      0.017u      0.000s      0.007w      3 calls
HF: Form core H                     :      0.017u      0.000s      0.071w      6 calls
HF: Form S/X                        :      0.000u      0.000s      0.004w      6 calls
HF: Guess                           :      0.033u      0.000s      0.005w      6 calls
HF: Form G                          :      4.550u      0.083s      2.815w     24 calls
| RV: Form V                        :      4.533u      0.083s      2.805w     24 calls
| | Properties                      :      1.283u      0.017s      0.671w   5328 calls
| | Functional                      :      1.800u      0.050s      1.293w   5328 calls
| | V_xc                            :      1.383u      0.017s      0.808w   5328 calls
| JK: D                             :      0.000u      0.000s      0.000w     24 calls
| JK: USO2AO                        :      0.000u      0.000s      0.000w     24 calls
| JK: JK                            :      0.017u      0.000s      0.007w     24 calls
| | DFH: compute_JK()               :      0.017u      0.000s      0.007w     24 calls
| | | DFH: Grabbing AOs             :      0.000u      0.000s      0.000w     24 calls
| | | DFH: compute_J                :      0.017u      0.000s      0.006w     24 calls
| JK: AO2USO                        :      0.000u      0.000s      0.000w     24 calls
HF: Form F                          :      0.000u      0.000s      0.001w     24 calls
HF: DIIS                            :      0.067u      0.000s      0.041w     24 calls
| DIISManager::add_entry            :      0.000u      0.000s      0.018w     24 calls
| DIISManager::extrapolate          :      0.000u      0.000s      0.005w     24 calls
| | bMatrix setup                   :      0.000u      0.000s      0.002w     24 calls
| | bMatrix pseudoinverse           :      0.000u      0.000s      0.002w     24 calls
| | New vector                      :      0.000u      0.000s      0.001w     24 calls
HF: Form C                          :      0.017u      0.000s      0.010w     24 calls
HF: Form D                          :      0.000u      0.000s      0.000w     24 calls
Total PK formation time             :      0.933u      0.000s      0.575w      6 calls
| Libint2ERI::Libint2ERI            :      0.150u      0.000s      0.098w     12 calls
JK: D                               :      0.017u      0.000s      0.001w     49 calls
JK: USO2AO                          :      0.000u      0.000s      0.001w     49 calls
JK: JK                              :      0.050u      0.000s      0.043w     49 calls
| PK computes JK                    :      0.050u      0.000s      0.043w     49 calls
JK: AO2USO                          :      0.000u      0.000s      0.000w     49 calls

**************************************************************************************

Host: QUADRAXIS

Timers On : Thu Jan 13 13:23:24 2022
Timers Off: Thu Jan 13 13:23:34 2022

Wall Time:        9.56 seconds

                                                       Time (seconds)
Module                                       User      System        Wall        Calls
V: Grid                             :      0.150u      0.000s      0.088w      9 calls
DFH: sparsity prep                  :      0.050u      0.017s      0.038w      3 calls
Libint2ERI::Libint2ERI              :      0.200u      0.050s      0.138w     21 calls
DFH: initialize()                   :      0.167u      0.000s      0.092w      3 calls
DFH: AO Construction                :      0.050u      0.000s      0.023w      3 calls
DFH: AO-Met. Contraction            :      0.017u      0.000s      0.006w      3 calls
HF: Form core H                     :      0.050u      0.000s      0.066w      6 calls
[...]
| | E->Wmbej                        :      0.033u      0.000s      0.014w     10 calls
| | X->Wmbej                        :      0.050u      0.033s      0.033w     10 calls
| Z                                 :      0.000u      0.000s      0.019w     10 calls
| T2 Build                          :      0.317u      0.117s      0.244w     10 calls
| | BT2                             :      0.117u      0.050s      0.111w     10 calls
| | | ABCD:new                      :      0.117u      0.050s      0.111w     10 calls
| | | | ABCD:S                      :      0.017u      0.017s      0.032w     10 calls
| | | | ABCD:A                      :      0.033u      0.033s      0.030w     10 calls
| | | | ABCD:axpy                   :      0.033u      0.000s      0.039w     10 calls
| | FT2                             :      0.000u      0.000s      0.013w     10 calls
| | WmbejT2                         :      0.033u      0.050s      0.038w     10 calls
| | CT2                             :      0.100u      0.017s      0.044w     10 calls
cchbar                              :      0.183u      0.150s      0.577w      1 calls
cclambda                            :      0.400u      0.250s      0.900w      1 calls
| ABCD:new                          :      0.117u      0.050s      0.086w      9 calls
| | ABCD:S                          :      0.017u      0.000s      0.023w      9 calls
| | ABCD:A                          :      0.050u      0.000s      0.023w      9 calls
| | ABCD:axpy                       :      0.050u      0.050s      0.033w      9 calls
ccdensity                           :      0.100u      0.133s      0.678w      1 calls
V: Grid                             :      0.033u      0.000s      0.024w      6 calls
CIWave: CIvect write                :      0.000u      0.000s      0.002w     54 calls
CIWave: CIvect read                 :      0.000u      0.000s      0.003w    269 calls
CIWave: s2                          :      0.167u      0.000s      0.106w     77 calls
CIWave: s3                          :      0.167u      0.000s      0.090w    126 calls
| CIWave: s3_mt                     :      0.083u      0.000s      0.049w   1540 calls
CIWave: s1                          :      0.000u      0.000s      0.000w     63 calls
CIWave: opdm                        :      0.000u      0.000s      0.002w      1 calls
| CIWave: CIvect read               :      0.000u      0.000s      0.000w      2 calls
CIWave: TPDM                        :      0.117u      0.000s      0.065w      1 calls
| CIWave: CIvect read               :      0.000u      0.000s      0.000w      2 calls
| CIWave: TPDM Block                :      0.117u      0.000s      0.063w     30 calls
| CIWave: TPDM Reorder              :      0.000u      0.000s      0.001w      1 calls
JK: D                               :      0.000u      0.000s      0.000w      1 calls
JK: USO2AO                          :      0.000u      0.000s      0.000w      1 calls
JK: JK                              :      0.000u      0.000s      0.000w      1 calls
| PK computes JK                    :      0.000u      0.000s      0.000w      1 calls
JK: AO2USO                          :      0.000u      0.000s      0.000w      1 calls
DFH: sparsity prep                  :      0.017u      0.000s      0.007w      1 calls
| Libint2ERI::Libint2ERI            :      0.017u      0.000s      0.004w      1 calls
DFH: initialize()                   :      0.033u      0.000s      0.016w      1 calls
| Libint2ERI::Libint2ERI            :      0.000u      0.000s      0.003w      2 calls
| DFH: AO Construction              :      0.017u      0.000s      0.002w      1 calls
| DFH: AO-Met. Contraction          :      0.000u      0.000s      0.000w      1 calls

**************************************************************************************

Host: QUADRAXIS

Timers On : Wed Feb 23 15:04:31 2022
Timers Off: Wed Feb 23 15:04:51 2022

Wall Time:       20.72 seconds

                                                       Time (seconds)
Module                                       User      System        Wall        Calls
Total PK formation time             :      0.583u      0.000s      0.355w      6 calls
Libint2ERI::Libint2ERI              :      0.117u      0.000s      0.086w     18 calls
HF: Form core H                     :      0.017u      0.000s      0.056w      5 calls
HF: Form S/X                        :      0.000u      0.000s      0.002w      5 calls
HF: Guess                           :      0.000u      0.000s      0.002w      5 calls
HF: Form G                          :      0.133u      0.000s      0.063w     25 calls
JK: D                               :      0.000u      0.000s      0.000w     26 calls
JK: USO2AO                          :      0.000u      0.000s      0.000w     26 calls
JK: JK                              :      0.033u      0.000s      0.009w     26 calls
PK computes JK                      :      0.033u      0.000s      0.009w     19 calls
DFH: compute_JK()                   :      0.000u      0.000s      0.000w      7 calls
DFH: Grabbing AOs                   :      0.000u      0.000s      0.000w      7 calls
DFH: compute_J                      :      0.000u      0.000s      0.000w      7 calls
JK: AO2USO                          :      0.000u      0.000s      0.000w     26 calls
RV: Form V                          :      0.100u      0.000s      0.052w      7 calls
Properties                          :      0.017u      0.000s      0.008w    175 calls
Functional                          :      0.067u      0.000s      0.033w    175 calls
V_xc                                :      0.017u      0.000s      0.010w    175 calls
HF: Form F                          :      0.000u      0.000s      0.000w     25 calls
HF: DIIS                            :      0.000u      0.000s      0.031w     25 calls
DIISManager::add_entry              :      0.000u      0.000s      0.011w     25 calls
DIISManager::extrapolate            :      0.000u      0.000s      0.003w     25 calls
bMatrix setup                       :      0.000u      0.000s      0.001w     25 calls
bMatrix pseudoinverse               :      0.000u      0.000s      0.001w     25 calls
New vector                          :      0.000u      0.000s      0.001w     25 calls
HF: Form C                          :      0.017u      0.000s      0.006w     25 calls
HF: Form D                          :      0.000u      0.000s      0.000w     25 calls
ccenergy                            :      1.233u      1.050s      5.034w      1 calls
F build                             :      0.050u      0.000s      0.040w     10 calls
Wmbej build                         :      0.100u      0.017s      0.078w     10 calls
C->Wmbej                            :      0.017u      0.000s      0.003w     10 calls
F->Wmbej                            :      0.033u      0.000s      0.028w     10 calls
E->Wmbej                            :      0.000u      0.017s      0.012w     10 calls
X->Wmbej                            :      0.033u      0.000s      0.032w     10 calls
Z                                   :      0.033u      0.000s      0.014w     10 calls
T2 Build                            :      0.283u      0.067s      0.211w     10 calls
BT2                                 :      0.133u      0.050s      0.094w     10 calls
ABCD:new                            :      0.250u      0.083s      0.171w     19 calls
ABCD:S                              :      0.050u      0.033s      0.047w     19 calls
ABCD:A                              :      0.033u      0.017s      0.044w     19 calls
ABCD:axpy                           :      0.133u      0.033s      0.066w     19 calls
FT2                                 :      0.000u      0.017s      0.011w     10 calls
WmbejT2                             :      0.033u      0.000s      0.035w     10 calls
CT2                                 :      0.067u      0.000s      0.037w     10 calls
cchbar                              :      0.050u      0.183s      0.511w      1 calls
cclambda                            :      0.383u      0.150s      0.875w      1 calls
ccdensity                           :      0.067u      0.067s      0.601w      1 calls
V: Grid                             :      0.033u      0.000s      0.024w      6 calls
CIWave: CIvect write                :      0.000u      0.000s      0.001w     54 calls
CIWave: CIvect read                 :      0.000u      0.000s      0.002w    273 calls
CIWave: s2                          :      0.167u      0.000s      0.082w     77 calls
CIWave: s3                          :      0.100u      0.000s      0.074w    126 calls
CIWave: s3_mt                       :      0.050u      0.000s      0.040w   1540 calls
CIWave: s1                          :      0.000u      0.000s      0.000w     63 calls
CIWave: opdm                        :      0.000u      0.000s      0.002w      1 calls
CIWave: TPDM                        :      0.100u      0.000s      0.063w      1 calls
CIWave: TPDM Block                  :      0.100u      0.000s      0.061w     30 calls
CIWave: TPDM Reorder                :      0.000u      0.000s      0.001w      1 calls
DFH: sparsity prep                  :      0.000u      0.000s      0.006w      1 calls
DFH: initialize()                   :      0.017u      0.000s      0.018w      1 calls
DFH: AO Construction                :      0.000u      0.000s      0.002w      1 calls
DFH: AO-Met. Contraction            :      0.000u      0.000s      0.000w      1 calls

--------------------------------------------------------------------------------------
Total PK formation time             :      0.583u      0.000s      0.355w      6 calls
| Libint2ERI::Libint2ERI            :      0.117u      0.000s      0.067w     12 calls
HF: Form core H                     :      0.017u      0.000s      0.056w      5 calls
HF: Form S/X                        :      0.000u      0.000s      0.002w      5 calls
HF: Guess                           :      0.000u      0.000s      0.002w      5 calls
HF: Form G                          :      0.133u      0.000s      0.063w     25 calls
| JK: D                             :      0.000u      0.000s      0.000w     25 calls
| JK: USO2AO                        :      0.000u      0.000s      0.000w     25 calls
| JK: JK                            :      0.033u      0.000s      0.009w     25 calls
| | PK computes JK                  :      0.033u      0.000s      0.009w     18 calls
| | DFH: compute_JK()               :      0.000u      0.000s      0.000w      7 calls
| | | DFH: Grabbing AOs             :      0.000u      0.000s      0.000w      7 calls
| | | DFH: compute_J                :      0.000u      0.000s      0.000w      7 calls
| JK: AO2USO                        :      0.000u      0.000s      0.000w     25 calls
| RV: Form V                        :      0.100u      0.000s      0.052w      7 calls
| | Properties                      :      0.017u      0.000s      0.008w    175 calls
| | Functional                      :      0.067u      0.000s      0.033w    175 calls
| | V_xc                            :      0.017u      0.000s      0.010w    175 calls
HF: Form F                          :      0.000u      0.000s      0.000w     25 calls
HF: DIIS                            :      0.000u      0.000s      0.031w     25 calls
| DIISManager::add_entry            :      0.000u      0.000s      0.011w     25 calls
| DIISManager::extrapolate          :      0.000u      0.000s      0.003w     25 calls
| | bMatrix setup                   :      0.000u      0.000s      0.001w     25 calls
| | bMatrix pseudoinverse           :      0.000u      0.000s      0.001w     25 calls
| | New vector                      :      0.000u      0.000s      0.001w     25 calls
HF: Form C                          :      0.017u      0.000s      0.006w     25 calls
HF: Form D                          :      0.000u      0.000s      0.000w     25 calls
Libint2ERI::Libint2ERI              :      0.000u      0.000s      0.013w      3 calls
ccenergy                            :      1.233u      1.050s      5.034w      1 calls
| F build                           :      0.050u      0.000s      0.040w     10 calls
| Wmbej build                       :      0.100u      0.017s      0.078w     10 calls
| | C->Wmbej                        :      0.017u      0.000s      0.003w     10 calls
| | F->Wmbej                        :      0.033u      0.000s      0.028w     10 calls
| | E->Wmbej                        :      0.000u      0.017s      0.012w     10 calls
| | X->Wmbej                        :      0.033u      0.000s      0.032w     10 calls
| Z                                 :      0.033u      0.000s      0.014w     10 calls
| T2 Build                          :      0.283u      0.067s      0.211w     10 calls
| | BT2                             :      0.133u      0.050s      0.094w     10 calls
| | | ABCD:new                      :      0.133u      0.050s      0.093w     10 calls
| | | | ABCD:S                      :      0.033u      0.017s      0.026w     10 calls
| | | | ABCD:A                      :      0.017u      0.017s      0.024w     10 calls
| | | | ABCD:axpy                   :      0.067u      0.017s      0.035w     10 calls
| | FT2                             :      0.000u      0.017s      0.011w     10 calls
| | WmbejT2                         :      0.033u      0.000s      0.035w     10 calls
| | CT2                             :      0.067u      0.000s      0.037w     10 calls
cchbar                              :      0.050u      0.183s      0.511w      1 calls
cclambda                            :      0.383u      0.150s      0.875w      1 calls
| ABCD:new                          :      0.117u      0.033s      0.077w      9 calls
| | ABCD:S                          :      0.017u      0.017s      0.021w      9 calls
| | ABCD:A                          :      0.017u      0.000s      0.020w      9 calls
| | ABCD:axpy                       :      0.067u      0.017s      0.030w      9 calls
ccdensity                           :      0.067u      0.067s      0.601w      1 calls
V: Grid                             :      0.033u      0.000s      0.024w      6 calls
CIWave: CIvect write                :      0.000u      0.000s      0.001w     54 calls
CIWave: CIvect read                 :      0.000u      0.000s      0.002w    269 calls
CIWave: s2                          :      0.167u      0.000s      0.082w     77 calls
CIWave: s3                          :      0.100u      0.000s      0.074w    126 calls
| CIWave: s3_mt                     :      0.050u      0.000s      0.040w   1540 calls
CIWave: s1                          :      0.000u      0.000s      0.000w     63 calls
CIWave: opdm                        :      0.000u      0.000s      0.002w      1 calls
| CIWave: CIvect read               :      0.000u      0.000s      0.000w      2 calls
CIWave: TPDM                        :      0.100u      0.000s      0.063w      1 calls
| CIWave: CIvect read               :      0.000u      0.000s      0.000w      2 calls
| CIWave: TPDM Block                :      0.100u      0.000s      0.061w     30 calls
| CIWave: TPDM Reorder              :      0.000u      0.000s      0.001w      1 calls
JK: D                               :      0.000u      0.000s      0.000w      1 calls
JK: USO2AO                          :      0.000u      0.000s      0.000w      1 calls
JK: JK                              :      0.000u      0.000s      0.000w      1 calls
| PK computes JK                    :      0.000u      0.000s      0.000w      1 calls
JK: AO2USO                          :      0.000u      0.000s      0.000w      1 calls
DFH: sparsity prep                  :      0.000u      0.000s      0.006w      1 calls
| Libint2ERI::Libint2ERI            :      0.000u      0.000s      0.002w      1 calls
DFH: initialize()                   :      0.017u      0.000s      0.018w      1 calls
| Libint2ERI::Libint2ERI            :      0.000u      0.000s      0.003w      2 calls
| DFH: AO Construction              :      0.000u      0.000s      0.002w      1 calls
| DFH: AO-Met. Contraction          :      0.000u      0.000s      0.000w      1 calls

**************************************************************************************

Host: QUADRAXIS

Timers On : Wed Feb 23 15:06:55 2022
Timers Off: Wed Feb 23 15:07:00 2022

Wall Time:        4.26 seconds

                                                       Time (seconds)
Module                                       User      System        Wall        Calls

--------------------------------------------------------------------------------------

**************************************************************************************

Host: QUADRAXIS

Timers On : Wed Feb 23 15:07:25 2022
Timers Off: Wed Feb 23 15:07:30 2022

Wall Time:        4.94 seconds

                                                       Time (seconds)
Module                                       User      System        Wall        Calls

--------------------------------------------------------------------------------------

**************************************************************************************

Host: QUADRAXIS

Timers On : Wed Feb 23 15:11:54 2022
Timers Off: Wed Feb 23 15:11:58 2022

Wall Time:        4.55 seconds

                                                       Time (seconds)
Module                                       User      System        Wall        Calls

--------------------------------------------------------------------------------------

**************************************************************************************

Host: QUADRAXIS

Timers On : Wed Feb 23 15:14:13 2022
Timers Off: Wed Feb 23 15:14:18 2022

Wall Time:        4.41 seconds

                                                       Time (seconds)
Module                                       User      System        Wall        Calls

--------------------------------------------------------------------------------------

**************************************************************************************

Host: QUADRAXIS

Timers On : Wed Feb 23 15:16:34 2022
Timers Off: Wed Feb 23 15:16:38 2022

Wall Time:        4.12 seconds

                                                       Time (seconds)
Module                                       User      System        Wall        Calls

--------------------------------------------------------------------------------------

**************************************************************************************

Host: QUADRAXIS

Timers On : Wed Feb 23 15:17:20 2022
Timers Off: Wed Feb 23 15:17:24 2022

Wall Time:        3.72 seconds

                                                       Time (seconds)
Module                                       User      System        Wall        Calls

--------------------------------------------------------------------------------------

**************************************************************************************

Host: QUADRAXIS

Timers On : Wed Feb 23 15:17:59 2022
Timers Off: Wed Feb 23 15:18:03 2022

Wall Time:        3.90 seconds

                                                       Time (seconds)
Module                                       User      System        Wall        Calls

--------------------------------------------------------------------------------------

**************************************************************************************

Host: QUADRAXIS

Timers On : Wed Feb 23 15:18:41 2022
Timers Off: Wed Feb 23 15:18:56 2022

Wall Time:       14.37 seconds

                                                       Time (seconds)
Module                                       User      System        Wall        Calls

--------------------------------------------------------------------------------------

**************************************************************************************
